<?xml version="1.0"?>
<VTKFile type="UnstructuredGrid"  version="0.1"  >
<UnstructuredGrid>
<Piece  NumberOfPoints="853" NumberOfCells="1564">
<Points>
<DataArray  type="Float64"  NumberOfComponents="3"  format="ascii">0 0 0  1 0 0  1 2 0  2 2 0  2 3 0  1 3 0  1 5 0  0 5 0  0.09999999999981467 0 0  0.1999999999995579 0 0  0.2999999999992664 0 0  0.3999999999989749 0 0  0.4999999999986943 0 0  0.5999999999989468 0 0  0.69999999999921 0 0  0.7999999999994734 0 0  0.8999999999997368 0 0  1 0.0999999999997993 0  1 0.1999999999996293 0  1 0.2999999999994072 0  1 0.3999999999991157 0  1 0.4999999999988242 0  1 0.5999999999985328 0  1 0.6999999999982413 0  1 0.7999999999979498 0  1 0.8999999999976585 0  1 0.9999999999973885 0  1 1.09999999999763 0  1 1.199999999997894 0  1 1.299999999998157 0  1 1.39999999999842 0  1 1.499999999998683 0  1 1.599999999998947 0  1 1.69999999999921 0  1 1.799999999999474 0  1 1.899999999999737 0  1.1 2 0  1.2 2 0  1.3 2 0  1.4 2 0  1.5 2 0  1.6 2 0  1.7 2 0  1.8 2 0  1.9 2 0  2 2.1 0  2 2.2 0  2 2.299999999999999 0  2 2.399999999999999 0  2 2.5 0  2 2.6 0  2 2.7 0  2 2.8 0  2 2.9 0  1.9 3 0  1.8 3 0  1.7 3 0  1.6 3 0  1.5 3 0  1.4 3 0  1.3 3 0  1.2 3 0  1.1 3 0  1 3.1 0  1 3.2 0  1 3.299999999999999 0  1 3.399999999999999 0  1 3.499999999999999 0  1 3.599999999999999 0  1 3.699999999999999 0  1 3.799999999999999 0  1 3.899999999999999 0  1 4 0  1 4.1 0  1 4.199999999999999 0  1 4.3 0  1 4.399999999999999 0  1 4.5 0  1 4.6 0  1 4.699999999999999 0  1 4.8 0  1 4.899999999999999 0  0.8999999999995836 5 0  0.7999999999999998 5 0  0.7000000000006934 5 0  0.6000000000013869 5 0  0.5000000000020587 5 0  0.4000000000016644 5 0  0.3000000000012483 5 0  0.2000000000008322 5 0  0.100000000000416 5 0  0 4.899999999999999 0  0 4.8 0  0 4.699999999999999 0  0 4.6 0  0 4.499999999999999 0  0 4.399999999999999 0  0 4.299999999999999 0  0 4.199999999999998 0  0 4.099999999999999 0  0 3.999999999999999 0  0 3.899999999999999 0  0 3.799999999999999 0  0 3.699999999999998 0  0 3.599999999999999 0  0 3.499999999999999 0  0 3.399999999999999 0  0 3.299999999999999 0  0 3.199999999999998 0  0 3.099999999999999 0  0 2.999999999999999 0  0 2.899999999999999 0  0 2.799999999999999 0  0 2.699999999999999 0  0 2.599999999999999 0  0 2.5 0  0 2.399999999999999 0  0 2.299999999999999 0  0 2.199999999999999 0  0 2.1 0  0 2 0  0 1.899999999999999 0  0 1.799999999999999 0  0 1.699999999999999 0  0 1.599999999999999 0  0 1.5 0  0 1.399999999999999 0  0 1.299999999999999 0  0 1.199999999999999 0  0 1.1 0  0 0.9999999999999991 0  0 0.8999999999999995 0  0 0.7999999999999998 0  0 0.7000000000000002 0  0 0.5999999999999996 0  0 0.4999999999999991 0  0 0.3999999999999995 0  0 0.3000000000000007 0  0 0.1999999999999993 0  0 0.09999999999999964 0  0.6166569079913358 2.492277433160826 0  0.496804750005887 0.5479593764091243 0  0.5000000000000001 3.249999999999996 0  0.5010746240977132 4.146233959879961 0  1.15284373704454 2.508044505059064 0  0.5115316434189965 1.955545969082757 0  0.4999999999999211 1.349999999999999 0  0.4689171957673295 3.679717700049328 0  0.5612906571832685 4.583387229041095 0  1.571380248656294 2.43209333797878 0  0.4137140166874343 2.842788829011612 0  0.5924999999992734 0.9499999999993549 0  0.3530983922827606 2.277151253345766 0  0.3374999999999892 1.65000000000002 0  0.6755701284515059 1.666012036452857 0  0.7199661008857956 2.178412873198308 0  0.7334525640603837 2.809285576954712 0  0.3169326937911943 0.8062495868452884 0  0.3138857644565878 4.404201202807377 0  1.409460640835247 2.684430832001214 0  0.6887829815303428 3.902565963060691 0  0.6887829815303437 3.49743403693931 0  0.3083333333329294 0.3083333333329091 0  0.6836117544982274 0.312527457707179 0  0.3168915343039068 1.103810255435239 0  0.3022648077978692 2.555831328112146 0  1.699661159477641 2.699661159477642 0  0.3119190378227792 4.685290485878375 0  0.2857741186203023 3.950276087647296 0  0.2901796187683303 3.455359237536657 0  0.7185169821104359 4.329943392965225 0  1.329943392965171 2.281483017889551 0  0.723334373514972 3.086114578383237 0  0.8872939267661155 2.418951697643693 0  0.2683606383900753 3.107323129784811 0  0.7213259925957727 0.709299358069827 0  0.7248933848217622 1.191311282739447 0  0.9946254212153881 2.725887626364616 0  0.2534599397489012 2.044779020535383 0  0.2472238456272076 1.409843650950396 0  0.7466779594322671 1.891779594322711 0  0.751445254703026 4.751445254703024 0  1.751445254703023 2.248554745296977 0  0.2308928978487501 0.5537472873885254 0  1.08084306636788 2.246658930824796 0  0.7618726449950816 1.428238687173948 0  0.2386599654867296 4.176198813049547 0  0.2277655772754102 3.726664793307169 0  0.7721651484755335 4.113350253753182 0  0.7651749878558429 3.697580220958253 0  0.7656850901336474 3.299617602969102 0  0.4980799523915615 4.792356177625049 0  1.776143433203817 2.501327251062086 0  1.208880242020366 2.780272536786154 0  0.7911996774911533 4.53781383416655 0  1.542032468257247 2.216473886475725 0  0.7821379364211358 0.4969347839607502 0  0.5159796121199893 3.035942476666499 0  0.1994782516945909 2.77487521870957 0  0.2121527327795772 1.820534480974185 0  0.4961068761097068 0.2091473007262267 0  0.8212076849290986 2.630353036209751 0  0.5799159337228276 2.696151511257179 0  0.521656415787208 1.134485020795658 0  0.5198027681168929 0.7515845938922632 0  0.5314469083329 2.149920708093939 0  0.8022340879252141 0.949830582795168 0  0.5153738125904214 4.366355293244797 0  1.369864008384514 2.483509168319498 0  0.493575298272567 3.951867463619321 0  0.4920800561363075 3.451776843677214 0  0.1993224400966551 3.276384038573164 0  0.2040352237160636 2.400557997609325 0  0.504974575031962 1.751372233424674 0  0.499694528062418 1.552255000835086 0  0.1883367598055906 0.9438245084748886 0  0.1955706745794366 4.52834806507854 0  1.537127505356749 2.822707438948337 0  0.4347408457716787 2.442047619826679 0  0.9025073455677252 2.163749048054409 0  0.1773846193758333 1.247310083483254 0  0.1790840974615431 2.196648468506937 0  0.4241221003595179 0.9580937949419669 0  0.5742095764754795 2.324790710904777 0  0.1810593287337392 0.1648759332410678 0  0.830532350559559 0.1714616318750705 0  0.1799849931748815 2.936783687129475 0  0.1700601135178742 1.60121319242071 0  1.834470454079937 2.829637832875926 0  0.1703621671240551 4.83447045408015 0  0.829990552477618 1.736728469669415 0  0.3976185944449355 4.553236496558402 0  1.555161286389273 2.597039871453049 0  0.8411335884160621 2.955436961449523 0  0.6558334436081007 2.021696625357631 0  0.9866801805488914 2.554042320868289 0  0.4842405954457978 0.3674248026875673 0  0.1764810578689407 0.6996979327130011 0  0.5695354616787965 2.867647040045057 0  0.627187487409925 3.659501677082119 0  0.1696270647651137 0.3969694240763386 0  0.1588761645418826 3.579667620980887 0  0.3504882684591691 1.27320675399182 0  0.1613150679413317 4.323270191935268 0  0.8439697987258331 3.850137374173121 0  0.8582592809978382 3.556895103851285 0  1.2205291243602 2.169320339907971 0  0.8274853269315643 1.578104600362255 0  1.35480687481049 2.843927765640049 0  0.3677577894563876 1.843336837909973 0  0.3739468553634951 0.650971017289567 0  0.8175350952416559 2.032763453059245 0  1.255052217924463 2.621284633706947 0  0.6275139014702615 3.348445849128012 0  0.3500097682353719 0.1540209779916574 0  0.8470720720723232 0.3499999999992615 0  0.6516218900422024 0.1543745010121346 0  0.1570362925186822 4.034940931583384 0  0.6259846398323782 4.050387381032598 0  0.6243837498547334 0.4550390732635957 0  0.3764337664925781 4.252429701173535 0  0.3638240662285239 4.845889022715784 0  1.841058165929382 2.650192415774816 0  0.3538129642253492 3.310506091581767 0  0.3972635403128369 2.692091228217206 0  0.1493546974812203 3.864275696990799 0  0.8353411562925317 1.295894841996498 0  0.8510640038578493 4.24376876336904 0  0.3274183905250344 3.60709353923235 0  0.5690599951287177 3.803379429947107 0  0.3608465922823166 4.079737353610348 0  0.1464953658605303 2.61946161625165 0  0.8522365706696342 1.101349250004825 0  0.8462743532452005 0.8012074197151465 0  1.200278576701711 2.350961992006298 0  0.7326508832134601 2.394973662719556 0  0.6648495127067672 1.330201720826574 0  0.6421476239135478 4.851671120026346 0  1.851998954991891 2.359839578227697 0  1.041233083983184 2.39820467647697 0  0.8526824909154477 3.164884108363255 0  0.3803758752537028 2.126429281492964 0  0.6420376057736918 4.200165882518018 0  0.8501088759525246 4.401734271500779 0  1.398058673633662 2.147688933973308 0  0.8545605983512565 0.6343835319818829 0  1.072584152252426 2.853228937916825 0  0.8462674517070675 4.851971641280215 0  1.853403041422536 2.15097879283758 0  0.3930760976266651 3.836742518240063 0  0.1459746256495623 1.094533214558924 0  0.1449604950589468 3.41641374300675 0  0.360147239891959 1.507070948822289 0  0.1371791188132176 3.14627243933882 0  0.1373781948221472 1.948699496915061 0  0.8787091687571863 2.813528399808599 0  0.640346663916172 3.202454813230568 0  0.1447898426935465 4.687821488540191 0  1.681222862898315 2.858606263227755 0  0.6057151088165942 1.858748550906064 0  0.6959087423316198 1.05023956637574 0  0.6929156491439609 0.8504350871602226 0  0.3804448021156934 2.991689533004409 0  0.4069998378428982 3.136829475620725 0  0.6221516319980132 1.461574324140038 0  0.8595221684437686 4.671970471025065 0  1.655041305862432 2.135199824735708 0  0.8397218722524009 3.992237826182404 0  0.6648391028671355 4.465773104071535 0  1.462522756387578 2.335702451268775 0  1.107872485384334 2.648667416202137 0  0.6412014890654342 0.5971222632485688 0  0.8285592833177335 2.286311487886619 0  0.4769010664620999 2.574488224117733 0  0.3384926303571551 0.445684366822149 0  0.622529668465069 4.711696333659297 0  1.70347020696268 2.379656531207025 0  0.673413754958227 2.634174081826437 0  0.8424185362726981 3.41410212582428 0  0.1496314029302428 1.699903720635713 0  0.6712113209446312 2.961657242108266 0  0.1318402597280083 0.83835
[...]
<PointData  Scalars="f_21"> 
<DataArray  type="Float64"  Name="f_21"  format="ascii">7.9999915606768228e+00  7.9999915606768228e+00  4.4969672980103601e+00  4.0318961983007009e+00  3.9713694073513501e+00  3.5050561976548700e+00  0.0000000000000000e+00  0.0000000000000000e+00  7.9999915606768228e+00  7.9999915606768228e+00  7.9999915606768228e+00  7.9999915606768228e+00  7.9999915606768228e+00  7.9999915606768228e+00  7.9999915606768228e+00  7.9999915606768228e+00  7.9999915606768228e+00  7.8386118615557621e+00  7.6732419358254216e+00  7.5022252924607491e+00  7.3440482659297182e+00  7.1686921108858010e+00  7.0037583440709810e+00  6.8455316123523966e+00  6.6742065684304013e+00  6.5074208969368117e+00  6.3454541789996428e+00  6.1828098759273447e+00  6.0145948853389939e+00  5.8488239737979297e+00  5.6789887810189343e+00  5.5094413176516044e+00  5.3365979933023535e+00  5.1535292137076105e+00  4.9738434436509529e+00  4.7868341405870449e+00  4.2895096102192358e+00  4.2006283710654637e+00  4.1447439152703902e+00  4.1049663569445300e+00  4.0783133390814408e+00  4.0584011866656038e+00  4.0461637558839589e+00  4.0375807743515102e+00  4.0330580878951690e+00  4.0307381738707706e+00  4.0266246701897357e+00  4.0195799975041204e+00  4.0114713797196817e+00  4.0020169904628391e+00  3.9917696634343063e+00  3.9836258991501672e+00  3.9766683930011624e+00  3.9725663113728444e+00  3.9701187453765940e+00  3.9658228201642225e+00  3.9572595382073508e+00  3.9444402003326204e+00  3.9258428312137545e+00  3.8978067348697913e+00  3.8595851595138293e+00  3.8001862437803782e+00  3.7139334233664130e+00  3.2177650523080334e+00  3.0275522136144413e+00  2.8407185821988143e+00  2.6677707967210842e+00  2.4906528208683993e+00  2.3299947090673645e+00  2.1578453971852531e+00  1.9836218408915260e+00  1.8249141666762430e+00  1.6529551775754481e+00  1.4898096319667820e+00  1.3199766944273448e+00  1.1620485020085607e+00  9.9205116663118176e-01  8.2851969357129474e-01  6.5497215394874075e-01  4.9871969068349176e-01  3.2620988784403365e-01  1.6704925175620622e-01  0.0000000000000000e+00  0.0000000000000000e+00  0.0000000000000000e+00  0.0000000000000000e+00  0.0000000000000000e+00  0.0000000000000000e+00  0.0000000000000000e+00  0.0000000000000000e+00  0.0000000000000000e+00  1.6194854639177172e-01  3.2308918891123217e-01  4.9457982698322706e-01  6.5553031738770706e-01  8.2204203803348486e-01  9.9820368453233321e-01  1.1547274504126703e+00  1.3193400235008284e+00  1.4900093044928178e+00  1.6473640658469713e+00  1.8163492054588721e+00  1.9720157033042522e+00  2.1457382627438353e+00  2.3082678474599541e+00  2.4665095452606538e+00  2.6246110192184426e+00  2.7830014099721065e+00  2.9493836637783617e+00  3.0953464821291008e+00  3.2591126949527958e+00  3.4113986348346250e+00  3.5592995660637419e+00  3.7068337559151359e+00  3.8542208225509627e+00  4.0021891975658930e+00  4.1480383238281515e+00  4.2924508388075164e+00  4.4407612170783635e+00  4.5955138380871530e+00  4.7488347040695551e+00  4.8957905425931703e+00  5.0600582292658833e+00  5.2150782922159475e+00  5.3733905072381134e+00  5.5403332086927826e+00  5.6982007886263650e+00  5.8577524944686390e+00  6.0195086438152705e+00  6.1899166742773843e+00  6.3501932708989717e+00  6.5179684750608553e+00  6.6740080314569585e+00  6.8416561213475449e+00  7.0061611619615043e+00  7.1798566010858629e+00  7.3439279915648763e+00  7.5063926283046314e+00  7.6712989950719539e+00  7.8385623401819640e+00  4.0115625561445674e+00  7.0947894722614571e+00  2.8864359923958602e+00  1.4108500100989738e+00  3.9970292072627065e+00  4.7871231128130196e+00  5.7709769816239795e+00  2.1809552196117332e+00  6.8814344614882927e-01  4.0149848181448400e+00  3.5094228447231091e+00  6.4301330843728879e+00  4.3214209618388892e+00  5.2873454338890120e+00  5.2378558123901469e+00  4.4130622446242924e+00  3.6105703146748911e+00  6.6687683148733896e+00  9.8391001247374943e-01  3.9468240003331458e+00  1.8156600101391618e+00  2.4908651240071480e+00  7.4912796102829127e+00  7.4837515636397409e+00  6.1790663463465805e+00  3.9209141215640093e+00  3.9752012236200565e+00  5.1906129268804957e-01  1.7327355672657920e+00  2.5425705155103997e+00  1.1077781829174191e+00  4.0819201285832616e+00  3.1856317109846994e+00  4.0855785209378945e+00  3.0960720579484819e+00  6.8272004421383237e+00  6.0295804430761804e+00  3.8009855808355897e+00  4.6725717007266594e+00  5.6791026987058242e+00  4.8476376191457433e+00  4.1043246372820619e-01  4.0301612885738889e+00  7.0857992699065004e+00  4.1858660120800710e+00  5.6334210492978114e+00  1.3604074029428161e+00  2.0996589485065051e+00  1.4665758776753588e+00  2.1582638758627355e+00  2.8300973322790490e+00  3.4273859020610248e-01  4.0015885333176566e+00  3.8581697943543016e+00  7.6390359152165377e-01  4.0548186297550917e+00  7.1782378460388712e+00  3.2291184045245833e+00  3.5985544169269201e+00  5.0217062375577743e+00  7.6546976784442728e+00  3.8543829292198786e+00  3.7367595019805995e+00  6.1261643326849278e+00  6.7582541445312172e+00  4.4903940931254631e+00  6.4288811349695845e+00  1.0469524226246012e+00  4.0070188650189849e+00  1.7320227418448919e+00  2.5566803368913913e+00  2.8265203965912469e+00  4.1458901048442112e+00  5.1127678878166662e+00  5.4381299342097131e+00  6.4428525129669350e+00  7.7786128748660788e-01  3.9430743149122689e+00  4.0827313546387423e+00  4.3616539707883906e+00  5.9450210961345071e+00  4.4462146478418081e+00  6.4180325200464221e+00  4.2381322246227109e+00  7.7285486508858661e+00  7.7172385994079384e+00  3.3549592936424926e+00  5.3711843709146052e+00  3.9719918409741868e+00  2.7202447213322983e-01  5.1020380144590609e+00  7.3759642784778989e-01  3.9820209229200043e+00  3.4421106762425211e+00  4.6595953115856972e+00  3.9534657074127146e+00  7.3932186493607146e+00  6.8443863595288024e+00  3.4918338060601459e+00  2.2184942522431799e+00  7.3452591340351727e+00  2.3386081508598733e+00  5.9004837494161517e+00  1.1180968324333143e+00  1.9041395600783375e+00  2.3966381050282415e+00  4.1577658714216925e+00  5.3773736936180043e+00  3.8967965579895756e+00  4.9771728766775452e+00  6.9248711006453938e+00  4.5917458972508856e+00  3.9446618705902421e+00  2.7358270337013990e+00  7.7459260189802279e+00  7.4219999055064445e+00  7.7451242190696776e+00  1.5929152693937227e+00  1.5701192396038459e+00  7.2480896308548797e+00  1.2349080372115577e+00  2.5411297794061660e-01  3.9860096142079557e+00  2.7787832223070064e+00  3.7279118672668647e+00  1.8728557516160440e+00  5.8540366760129530e+00  1.2508050161682835e+00  2.2967837549284389e+00  1.9786165313256701e+00  1.5199212386844587e+00  3.8269166767548550e+00  6.1785472004772322e+00  6.6745289354872606e+00  4.0825906321401311e+00  4.1295831868987030e+00  5.7995930892319141e+00  2.4490787552845716e-01  4.0161825828891136e+00  4.0829150723625780e+00  3.0760725087857268e+00  4.5412197129311229e+00  1.3222898145983388e+00  9.8915357591686748e-01  4.0951226693626621e+00  6.9506371992951941e+00  3.7423067684059426e+00  2.4428626676599577e-01  4.0314889602713970e+00  1.9208272878878911e+00  6.1954908648261444e+00  2.6017781150573072e+00  5.5178428313741446e+00  3.0301856101817664e+00  4.8238411972939161e+00  3.6567193879787938e+00  2.9790332062529212e+00  5.1428786699909623e-01  3.9594984086520473e+00  4.9274154257447496e+00  6.2636431378750439e+00  6.5939960410870233e+00  3.2823692361013062e+00  3.0591610836105536e+00  5.5824124232662857e+00  5.4160444102073024e-01  4.0468908418389589e+00  1.6674624609886755e+00  8.8287602699487022e-01  4.0438768590482583e+00  3.8992959739347399e+00  7.0130333106966258e+00  4.2445326990820149e+00  3.8977812925712727e+00  7.2642521986545825e+00  4.7612185456916611e-01  4.0181978085296395e+00  3.8295339542591269e+00  2.6390624477411500e+00  5.2140975981141606e+00  3.3715812755252665e+00  6.6158539287802975e+00  5.6150508022106704e+00  4.8865484453622106e+00  4.6084303865502694e+00  4.2817834202903153e+00  2.3443517978291020e+00  4.7610475643996422e+00  4.2790407268437658e+00  7.0922530322279913e+00  5.8624514323406041e-01  3.9891852821423739e+00  3.4578957385041971e+00  4.1964670638840866e+00  5.0650312749715765e+00  4.0723726188339207e+00  5.5996165782475620e+00  3.9988652565559200e+00  9.3821563076974657e-01  1.4183582587831036e+00  2.0089844820088505e+00  7.4801583815142356e+00  7.5153901387517035e+00  6.5365508699920296e+00  4.2770074709151036e+00  3.4748840301693180e+00  3.9766681202427505e+00  5.6820510781131999e+00  5.3936694494735962e+00  2.0468408036228150e+00  6.5507053594519549e-01  4.0373252913256570e+00  5.9954983781272455e+00  4.0239733223983416e+00  2.9348145299618227e+00  2.0681320940458416e+00  3.2789020624864738e+00  3.8414781465613705e+00  1.3960198632022953e+00  1.2306779023577887e+00  6.4802240435438527e+00  6.3103738896003527e+00  7.2440151922866880e+00  1.5241222991452008e-01  4.0237920129386735e+00  8.2548184868278573e-01  4.0011463851039961e+00  2.4557968641505692e+00  1.9626921959984436e+00  2.0749418848029411e+00  5.2705706535817560e+00  7.8247526608236173e+00  3.9149025299115467e+00  1.8083992295559528e-01  3.9972039131280783e+00  3.6182101856556881e+00  5.8168095955342514e+00  4.8387128401996922e+00  3.1737031735269765e+00  6.0347785412302182e+00  1.6308516621039033e+00  5.1168439870424605e+00  2.9207193436217360e+00  7.2034779398272841e-01  4.0622241149084148e+00  3.0597157585639612e+00  3.7889579319668023e+00  4.6479250251949029e+00  8.0724704865963626e-01  3.9597502618088654e+00  1.1901469823130051e+00  3.7407499096617109e+00  2.3137923878488835e+00  4.9674709307687026e+00  4.2991874470599276e+00  3.9798590040675452e+00  1.5814760376848153e-01  6.7402204878463223e+00  4.0996211556109881e+00  2.6497105956822420e+00  3.6966477488646707e+00  4.6921195103087809e+00  3.9946413239324872e+00  4.3773051267118621e+00  7.1019976948862826e+00  3.2480313969307471e+00  3.3795463450618346e+00  7.5324525448327115e+00  4.2576074123534619e-01  3.0137603591502922e+00  3.5919626651343965e+00  3.6109566261185719e+00  7.8357317859217384e+00  7.8359849047723271e+00  7.5708545747983029e+00  5.2570198112607969e+00  3.9038552715213553e+00  6.0185369831696320e+00  3.8265090764985121e+00  3.9705896156523277e+00  2.7339199889843626e+00  7.3475265737748030e+00  6.9826290200701715e+00  6.9243281042243998e+00  3.7684704384142762e+00  1.0573776504378152e+00  6.9198090919782338e+00  1.2854275478058101e+00  2.8734983318099068e+00  4.5371364124981204e+00  4.2541076217457006e+00  3.9806037648889758e-01  4.0397360535412217e+00  6.7536386744180454e+00  5.9389016630237341e+00  6.3468210613622924e+00  5.2458522132834293e+00  1.6871662940561378e+00  2.4658744047668208e+00  6.2357837762059436e+00  3.5858787215060635e+00  3.2785591379246988e+00  7.8272020368148567e+00  7.8264956162773514e+00  4.1344867455111700e+00  1.5169218268144369e+00  7.8252599833228231e+00  3.9304735720372195e+00  2.2281165688580473e+00  1.7323726232968304e+00  6.5170876343574982e+00  5.2604822864469734e+00  2.2584517763336072e+00  1.0997926986631543e+00  1.5621628499601885e+00  6.2179239866822060e+00  4.0436921199781137e+00  1.7332537943181046e+00  4.4147023415326014e+00  5.4324040350442990e+00  5.6093437067282155e+00  1.2236552546998134e+00  5.4228597734761799e+00  3.9713972925358507e+00  1.6817093324025931e-01  4.0075676506982729e+00  2.7003090277125641e+00  6.3406308114040488e+00  3.8814237077542826e+00  4.9553262244601468e+00  5.2610015018154899e+00  9.1168291715925509e-01  4.4912300173587409e+00  6.9220561713696949e+00  6.3236366943738833e+00  4.2366560865146470e+00  6.0049044853354392e+00  5.8429850238690797e+00  4.0073520740230677e+00  5.0797108919637761e+00  5.1200966246487445e+00  3.9751027442444422e+00  3.9636582129167741e+00  3.3962583140059832e-01  3.9774559533303027e+00  6.5867706891009830e+00  6.4293576971060213e+00  4.4578030669112305e+00  7.3760779696161716e-01  3.9461721047224976e+00  6.0775539622067569e+00  6.4963877701891581e-01  3.9635359906842313e+00  5.8914327953870966e+00  8.9454823739260070e-01  7.2404669276253353e+00  4.1420633355799641e+00  6.7889939788994020e+00  6.6085121524678803e+00  4.1436513445219010e+00  7.6271956124199765e+00  7.6376828785129645e+00  3.7606046881373940e+00  7.0622832609837110e+00  2.6151338020224948e+00  3.9636291769541199e+00  3.9943113426710825e-01  9.3702281878873839e-01  4.0724107715819535e+00  4.1878844997317675e+00  4.7805970040433978e+00  2.4683662738415948e+00  7.2545013007202446e+00  6.5879795274595647e+00  6.7436595035878719e+00  4.4877490139826968e+00  4.5543052494588796e+00  1.3288652528463885e-01  4.0081186126407280e+00  5.4609266776306589e+00  1.1045154456698087e+00  5.7542571438985801e+00  4.7037944347478593e+00  7.4910790787040122e+00  5.8903130397839698e-01  2.9192457831137086e+00  2.6987618482558546e+00  2.1241789458188931e+00  7.3110625061678902e-01  4.0364688784076268e+00  4.6456495401166249e+00  2.3982524965554175e+00  4.0398369971961863e+00  5.0412700355004736e+00  7.2360387376187942e+00  1.7346957599916284e+00  1.3685362322173469e+00  3.8865627153598941e+00  4.2580301978612480e+00  3.8944101408979090e+00  4.0139926568106885e+00  3.3337381881458654e+00  7.6290064121023722e+00  4.1265981806406637e+00  2.2522454244136951e+00  3.9914725788104852e+00  1.7715176614863615e+00  1.7877823867574512e+00  2.8575360555915053e+00  4.3532942297231774e+00  1.9035108084163073e+00  2.3111818054936872e+00  7.5588723733337941e+00  7.1362948507914705e+00  3.2884278839798760e+00  7.6655778820209131e+00  9.4784742849818415e-01  6.9751138723354753e+00  2.0193696037505982e+00  4.0201414885610198e+00  1.0856893093656188e+00  3.1977926329355228e+00  6.4862140237552230e+00  1.4521289243533035e+00  2.5383072744635142e+00  3.5685108758890163e+00  7.2486009478732747e+00  3.9986832746396654e+00  8.9664424973703749e-01  4.0855677420481467e+00  4.1132937164436409e+00  3.9816685784508596e+00  2.7148734353769211e+00  3.9759229813478631e+00  5.6947232489621671e+00  4.1142098525275452e+00  5.5176911045078239e+00  3.8837521174410701e+00  1.5656448815477171e+00  4.5193012200757785e+00  4.0487986460333811e+00  6.8086520350174311e+00  2.4834801508383260e+00  3.3436438048662014e+00  5.4316399827500472e+00  5.3122558836228819e+00  3.5041300998872038e+00  1.4353578503198008e+00  4.9829065855297339e+00  7.3924146712430296e+00  7.3920949212515321e+00  4.2033357468780981e+00  5.8550493897673919e+00  1.1173863956784957e+00  4.0659501242932210e+00  2.7393579324919011e+00  3.9768272627563652e+00  6.5712380051889836e+00  6.2864093357797577e+00  3.4713537537509880e+00  2.8615177906435183e+00  1.2807329539787540e+00  1.5759941483534328e+00  6.7593142897279543e+00  6.8726733848228800e+00  2.1626763046647923e+00  1.2765656582131573e+00  4.5780545064986405e-01  3.9674450592328685e+00  1.4022791650248170e+00  2.6027616262877760e+00  6.1054983037001183e+00  7.1257358775143738e+00  2.9620075292674040e+00  3.8827876636053533e+00  3.9187901009755732e+00  6.0205580926991153e+00  5.4011350611353430e+00  3.7303318815186430e+00  4.7441523310878999e+00  6.1366887537147896e+00  1.8959316217757649e+00  7.3616739097820298e+00  3.4764058421338917e+00  4.1552203061881379e+00  2.4876894541299808e+00  3.5856073376411324e-01  4.0213692219141484e+00  5.7001754310220845e+00  3.7619140475623269e+00  3.9875894506058351e+00  1.1862218829656425e-01  2.3459464835283415e+00  3.1149090814320508e+00  4.0545817772670807e+00  5.6691257048189687e+00  7.0688749937883844e-01  1.3794647259147905e-01  4.0319086930627241e+00  5.1226629272897100e+00  7.8830424542181596e+00  7.4181904840964759e+00  7.8850553335121534e+00  3.8424938595581151e+00  1.5873409588270673e+00  3.1568878874838768e+00  5.8411913678501781e+00  4.4055152555441639e+00  3.6844807266261421e+00  4.7282211774398712e+00  4.2037739471123050e+00  5.9538657582475263e-01  6.1473172371019205e+00  3.6631283833285795e+00  3.7841219850256841e-01  4.0119675183103425e+00  6.7026273852927325e+00  6.8777224201174612e+00  5.1473275211957041e+00  7.6703454055730429e+00  5.7649874910384762e+00  5.5248132661159000e+00  2.2927268613839420e+00  3.1152706209148020e+00  4.1782000665491754e+00  1.9104046282052023e+00  7.0247169060263044e+00  6.8058885797623567e+00  1.0603905584198049e-01  4.0158973317241289e+00  3.4058274686077592e+00  5.8961976014924717e+00  4.6564292336677813e+00  3.9752212792735198e+00  1.3163726224436231e-01  7.3707408965505508e+00  2.0401255184455094e+00  5.9445777413686951e+00  3.7192571754518235e+00  3.6229838826356660e+00  1.2464997639204380e+00  4.9933444717938846e-01  4.8576882557386352e+00  7.2031654063858852e+00  3.9335738784617864e+00  3.8011527280472857e+00  4.8113266785805431e+00  4.9776916866989760e+00  1.4541149855020550e+00  3.7461943273877640e+00  4.1210464358118415e+00  6.9300024976866759e+00  3.1749335677035120e+00  4.3686283175377474e+00  6.1409756681711674e+00  1.8719556251300133e+00  5.5851076669723971e+00  3.8851206149951580e+00  3.8038919087855860e-01  4.0331601773139898e+00  3.9448493379369367e+00  1.9714032621029867e+00  1.1584311382362833e+00  5.5554636472060999e+00  6.9890288169572283e+00  7.6101674399734245e+00  6.6405060492324539e+00  4.7382582986565476e+00  1.5360882115392898e+00  3.0104282981423303e-01  5.2000083017272281e-01  4.0473511624155503e+00  3.8745311585213384e+00  8.6105795308662303e-01  4.0727127461133410e+00  7.8745058676214494e+00  7.8748479032133538e+00  7.7049496168590252e+00  1.0491911924308051e+00  3.5513513710879585e+00  7.5278713721360733e+00  3.0234801972157759e+00  1.8098903092433030e+00  4.2633468558746506e+00  4.1747477811166416e+00  6.3343871864287706e+00  6.2904026989113939e+00  1.3642617133108828e+00  2.4029469306121709e+00  1.6190046529176565e+00  3.9487418799616090e+00  1.6855504224829108e+00  5.7044033751162759e-01  4.0509760697515595e+00  4.1098522581959500e+00  4.8963187890164992e+00  2.1904444352951238e+00  4.1081781506852062e+00  1.0938545099245504e-01  2.5727567764743980e-01  4.0289603329651049e+00  4.0347485041744671e+00  2.1022559758317132e+00  6.0329683235482701e-01  4.0231202225453870e+00  3.9890538500159609e+00  4.5990165474213782e+00  1.1988323483447221e+00  5.7575812275111282e+00  3.8022933044085376e+00  5.9386458387850292e+00  3.9542993315122215e+00  2.3531757427790341e+00  2.7787093180468223e+00  6.2224478593839780e+00  6.2269380564856680e-01  3.9564987851484164e+00  7.0735632943746980e+00  3.1665579432697624e+00  6.4300059669430238e+00  7.2980109222970242e+00  2.8345863780381864e+00  2.5842285812119257e+00  2.9357147400291672e+00  5.0949488372914864e+00  6.7080593099702126e+00  4.3425276358507423e+00  3.9375299441162785e+00  4.3713827089017023e+00  4.4413531732662213e+00  4.5234855181839970e+00  1.0066744571036856e+00  4.1553428392391023e+00  1.8407182165372944e+00  2.0480063222861329e+00  1.1069159529156003e+00  2.7228945917631475e+00  6.6634835736378069e+00  3.0092800547489684e+00  4.0459747272828768e+00  3.0377133631250977e+00  3.8869283422760783e+00  7.1425758376735988e+00  2.1857712964084559e+00  3.9325781507004987e+00  4.8914870787110170e+00  4.8329969640110200e+00  4.0263683661521865e+00  6.6074078944701808e+00  2.6111103903996939e+00  6.4186678434416167e-01  4.0379257375145539e+00  6.3251350403655477e+00  3.9829031051408372e+00  5.5091421780026320e+00  1.8525240675602932e+00  3.7415751326566151e+00  1.8380484609869978e+00  5.0721426706628259e-01  2.9957385565381456e-01  3.4527573889957135e+00  2.4373586712297675e+00  6.4195555297529650e+00  5.0002887569012939e+00  3.3086835185575532e+00  5.1409866794037811e+00  7.3447229750414404e+00  3.0866629123211959e+00  3.9680401202617031e+00  2.6995902042926762e-01  9.5563260677645190e-01  4.0283410890494409e+00  6.2590198714160667e+00  5.7055169537825385e+00  4.8770344325126302e+00  2.7348893519719790e+00  5.5391511090944530e+00  8.1302738799180618e-01  2.2427333803306104e+00  4.0251609982230026e+00  2.5520091577537146e-01  7.6010430522070553e+00  4.2315776673297743e+00  4.0540677804162506e+00  2.1829540185462828e+00  8.1158853227228811e-01  6.8229315344609693e+00  6.5103731138989644e+00  6.7654568483346578e-01  3.9222173788535102e