<?xml version="1.0"?>
<VTKFile type="UnstructuredGrid"  version="0.1"  >
<UnstructuredGrid>
<Piece  NumberOfPoints="853" NumberOfCells="1564">
<Points>
<DataArray  type="Float64"  NumberOfComponents="3"  format="ascii">0 0 0  1 0 0  1 2 0  2 2 0  2 3 0  1 3 0  1 5 0  0 5 0  0.09999999999981467 0 0  0.1999999999995579 0 0  0.2999999999992664 0 0  0.3999999999989749 0 0  0.4999999999986943 0 0  0.5999999999989468 0 0  0.69999999999921 0 0  0.7999999999994734 0 0  0.8999999999997368 0 0  1 0.0999999999997993 0  1 0.1999999999996293 0  1 0.2999999999994072 0  1 0.3999999999991157 0  1 0.4999999999988242 0  1 0.5999999999985328 0  1 0.6999999999982413 0  1 0.7999999999979498 0  1 0.8999999999976585 0  1 0.9999999999973885 0  1 1.09999999999763 0  1 1.199999999997894 0  1 1.299999999998157 0  1 1.39999999999842 0  1 1.499999999998683 0  1 1.599999999998947 0  1 1.69999999999921 0  1 1.799999999999474 0  1 1.899999999999737 0  1.1 2 0  1.2 2 0  1.3 2 0  1.4 2 0  1.5 2 0  1.6 2 0  1.7 2 0  1.8 2 0  1.9 2 0  2 2.1 0  2 2.2 0  2 2.299999999999999 0  2 2.399999999999999 0  2 2.5 0  2 2.6 0  2 2.7 0  2 2.8 0  2 2.9 0  1.9 3 0  1.8 3 0  1.7 3 0  1.6 3 0  1.5 3 0  1.4 3 0  1.3 3 0  1.2 3 0  1.1 3 0  1 3.1 0  1 3.2 0  1 3.299999999999999 0  1 3.399999999999999 0  1 3.499999999999999 0  1 3.599999999999999 0  1 3.699999999999999 0  1 3.799999999999999 0  1 3.899999999999999 0  1 4 0  1 4.1 0  1 4.199999999999999 0  1 4.3 0  1 4.399999999999999 0  1 4.5 0  1 4.6 0  1 4.699999999999999 0  1 4.8 0  1 4.899999999999999 0  0.8999999999995836 5 0  0.7999999999999998 5 0  0.7000000000006934 5 0  0.6000000000013869 5 0  0.5000000000020587 5 0  0.4000000000016644 5 0  0.3000000000012483 5 0  0.2000000000008322 5 0  0.100000000000416 5 0  0 4.899999999999999 0  0 4.8 0  0 4.699999999999999 0  0 4.6 0  0 4.499999999999999 0  0 4.399999999999999 0  0 4.299999999999999 0  0 4.199999999999998 0  0 4.099999999999999 0  0 3.999999999999999 0  0 3.899999999999999 0  0 3.799999999999999 0  0 3.699999999999998 0  0 3.599999999999999 0  0 3.499999999999999 0  0 3.399999999999999 0  0 3.299999999999999 0  0 3.199999999999998 0  0 3.099999999999999 0  0 2.999999999999999 0  0 2.899999999999999 0  0 2.799999999999999 0  0 2.699999999999999 0  0 2.599999999999999 0  0 2.5 0  0 2.399999999999999 0  0 2.299999999999999 0  0 2.199999999999999 0  0 2.1 0  0 2 0  0 1.899999999999999 0  0 1.799999999999999 0  0 1.699999999999999 0  0 1.599999999999999 0  0 1.5 0  0 1.399999999999999 0  0 1.299999999999999 0  0 1.199999999999999 0  0 1.1 0  0 0.9999999999999991 0  0 0.8999999999999995 0  0 0.7999999999999998 0  0 0.7000000000000002 0  0 0.5999999999999996 0  0 0.4999999999999991 0  0 0.3999999999999995 0  0 0.3000000000000007 0  0 0.1999999999999993 0  0 0.09999999999999964 0  0.6166569079913358 2.492277433160826 0  0.496804750005887 0.5479593764091243 0  0.5000000000000001 3.249999999999996 0  0.5010746240977132 4.146233959879961 0  1.15284373704454 2.508044505059064 0  0.5115316434189965 1.955545969082757 0  0.4999999999999211 1.349999999999999 0  0.4689171957673295 3.679717700049328 0  0.5612906571832685 4.583387229041095 0  1.571380248656294 2.43209333797878 0  0.4137140166874343 2.842788829011612 0  0.5924999999992734 0.9499999999993549 0  0.3530983922827606 2.277151253345766 0  0.3374999999999892 1.65000000000002 0  0.6755701284515059 1.666012036452857 0  0.7199661008857956 2.178412873198308 0  0.7334525640603837 2.809285576954712 0  0.3169326937911943 0.8062495868452884 0  0.3138857644565878 4.404201202807377 0  1.409460640835247 2.684430832001214 0  0.6887829815303428 3.902565963060691 0  0.6887829815303437 3.49743403693931 0  0.3083333333329294 0.3083333333329091 0  0.6836117544982274 0.312527457707179 0  0.3168915343039068 1.103810255435239 0  0.3022648077978692 2.555831328112146 0  1.699661159477641 2.699661159477642 0  0.3119190378227792 4.685290485878375 0  0.2857741186203023 3.950276087647296 0  0.2901796187683303 3.455359237536657 0  0.7185169821104359 4.329943392965225 0  1.329943392965171 2.281483017889551 0  0.723334373514972 3.086114578383237 0  0.8872939267661155 2.418951697643693 0  0.2683606383900753 3.107323129784811 0  0.7213259925957727 0.709299358069827 0  0.7248933848217622 1.191311282739447 0  0.9946254212153881 2.725887626364616 0  0.2534599397489012 2.044779020535383 0  0.2472238456272076 1.409843650950396 0  0.7466779594322671 1.891779594322711 0  0.751445254703026 4.751445254703024 0  1.751445254703023 2.248554745296977 0  0.2308928978487501 0.5537472873885254 0  1.08084306636788 2.246658930824796 0  0.7618726449950816 1.428238687173948 0  0.2386599654867296 4.176198813049547 0  0.2277655772754102 3.726664793307169 0  0.7721651484755335 4.113350253753182 0  0.7651749878558429 3.697580220958253 0  0.7656850901336474 3.299617602969102 0  0.4980799523915615 4.792356177625049 0  1.776143433203817 2.501327251062086 0  1.208880242020366 2.780272536786154 0  0.7911996774911533 4.53781383416655 0  1.542032468257247 2.216473886475725 0  0.7821379364211358 0.4969347839607502 0  0.5159796121199893 3.035942476666499 0  0.1994782516945909 2.77487521870957 0  0.2121527327795772 1.820534480974185 0  0.4961068761097068 0.2091473007262267 0  0.8212076849290986 2.630353036209751 0  0.5799159337228276 2.696151511257179 0  0.521656415787208 1.134485020795658 0  0.5198027681168929 0.7515845938922632 0  0.5314469083329 2.149920708093939 0  0.8022340879252141 0.949830582795168 0  0.5153738125904214 4.366355293244797 0  1.369864008384514 2.483509168319498 0  0.493575298272567 3.951867463619321 0  0.4920800561363075 3.451776843677214 0  0.1993224400966551 3.276384038573164 0  0.2040352237160636 2.400557997609325 0  0.504974575031962 1.751372233424674 0  0.499694528062418 1.552255000835086 0  0.1883367598055906 0.9438245084748886 0  0.1955706745794366 4.52834806507854 0  1.537127505356749 2.822707438948337 0  0.4347408457716787 2.442047619826679 0  0.9025073455677252 2.163749048054409 0  0.1773846193758333 1.247310083483254 0  0.1790840974615431 2.196648468506937 0  0.4241221003595179 0.9580937949419669 0  0.5742095764754795 2.324790710904777 0  0.1810593287337392 0.1648759332410678 0  0.830532350559559 0.1714616318750705 0  0.1799849931748815 2.936783687129475 0  0.1700601135178742 1.60121319242071 0  1.834470454079937 2.829637832875926 0  0.1703621671240551 4.83447045408015 0  0.829990552477618 1.736728469669415 0  0.3976185944449355 4.553236496558402 0  1.555161286389273 2.597039871453049 0  0.8411335884160621 2.955436961449523 0  0.6558334436081007 2.021696625357631 0  0.9866801805488914 2.554042320868289 0  0.4842405954457978 0.3674248026875673 0  0.1764810578689407 0.6996979327130011 0  0.5695354616787965 2.867647040045057 0  0.627187487409925 3.659501677082119 0  0.1696270647651137 0.3969694240763386 0  0.1588761645418826 3.579667620980887 0  0.3504882684591691 1.27320675399182 0  0.1613150679413317 4.323270191935268 0  0.8439697987258331 3.850137374173121 0  0.8582592809978382 3.556895103851285 0  1.2205291243602 2.169320339907971 0  0.8274853269315643 1.578104600362255 0  1.35480687481049 2.843927765640049 0  0.3677577894563876 1.843336837909973 0  0.3739468553634951 0.650971017289567 0  0.8175350952416559 2.032763453059245 0  1.255052217924463 2.621284633706947 0  0.6275139014702615 3.348445849128012 0  0.3500097682353719 0.1540209779916574 0  0.8470720720723232 0.3499999999992615 0  0.6516218900422024 0.1543745010121346 0  0.1570362925186822 4.034940931583384 0  0.6259846398323782 4.050387381032598 0  0.6243837498547334 0.4550390732635957 0  0.3764337664925781 4.252429701173535 0  0.3638240662285239 4.845889022715784 0  1.841058165929382 2.650192415774816 0  0.3538129642253492 3.310506091581767 0  0.3972635403128369 2.692091228217206 0  0.1493546974812203 3.864275696990799 0  0.8353411562925317 1.295894841996498 0  0.8510640038578493 4.24376876336904 0  0.3274183905250344 3.60709353923235 0  0.5690599951287177 3.803379429947107 0  0.3608465922823166 4.079737353610348 0  0.1464953658605303 2.61946161625165 0  0.8522365706696342 1.101349250004825 0  0.8462743532452005 0.8012074197151465 0  1.200278576701711 2.350961992006298 0  0.7326508832134601 2.394973662719556 0  0.6648495127067672 1.330201720826574 0  0.6421476239135478 4.851671120026346 0  1.851998954991891 2.359839578227697 0  1.041233083983184 2.39820467647697 0  0.8526824909154477 3.164884108363255 0  0.3803758752537028 2.126429281492964 0  0.6420376057736918 4.200165882518018 0  0.8501088759525246 4.401734271500779 0  1.398058673633662 2.147688933973308 0  0.8545605983512565 0.6343835319818829 0  1.072584152252426 2.853228937916825 0  0.8462674517070675 4.851971641280215 0  1.853403041422536 2.15097879283758 0  0.3930760976266651 3.836742518240063 0  0.1459746256495623 1.094533214558924 0  0.1449604950589468 3.41641374300675 0  0.360147239891959 1.507070948822289 0  0.1371791188132176 3.14627243933882 0  0.1373781948221472 1.948699496915061 0  0.8787091687571863 2.813528399808599 0  0.640346663916172 3.202454813230568 0  0.1447898426935465 4.687821488540191 0  1.681222862898315 2.858606263227755 0  0.6057151088165942 1.858748550906064 0  0.6959087423316198 1.05023956637574 0  0.6929156491439609 0.8504350871602226 0  0.3804448021156934 2.991689533004409 0  0.4069998378428982 3.136829475620725 0  0.6221516319980132 1.461574324140038 0  0.8595221684437686 4.671970471025065 0  1.655041305862432 2.135199824735708 0  0.8397218722524009 3.992237826182404 0  0.6648391028671355 4.465773104071535 0  1.462522756387578 2.335702451268775 0  1.107872485384334 2.648667416202137 0  0.6412014890654342 0.5971222632485688 0  0.8285592833177335 2.286311487886619 0  0.4769010664620999 2.574488224117733 0  0.3384926303571551 0.445684366822149 0  0.622529668465069 4.711696333659297 0  1.70347020696268 2.379656531207025 0  0.673413754958227 2.634174081826437 0  0.8424185362726981 3.41410212582428 0  0.1496314029302428 1.699903720635713 0  0.6712113209446312 2.961657242108266 0  0.1318402597280083 0.83835
[...]
<PointData  Vectors="f_15"> 
<DataArray  type="Float64"  Name="f_15"  NumberOfComponents="3" format="ascii">-2.2187319736088145e-07 4.8448396602024085e-07 0.0000000000000000e+00  2.1428792142956974e-07 7.5696794645582135e-08 0.0000000000000000e+00  3.5520084071418804e-07 -6.4546656791329227e-08 0.0000000000000000e+00  -3.1121756025786642e-08 -3.2663747290102898e-08 0.0000000000000000e+00  1.4331422478718125e-08 -2.2186212260311197e-08 0.0000000000000000e+00  -2.4256886071152539e-07 2.5831460697640867e-07 0.0000000000000000e+00  -1.3182650887213746e-08 3.8916705588470055e-07 0.0000000000000000e+00  2.1301340549061595e-07 7.3808751973163690e-08 0.0000000000000000e+00  9.5721492754470786e-05 2.0201242383825122e-02 0.0000000000000000e+00  2.9860509443897273e-05 2.1264161921328930e-02 0.0000000000000000e+00  2.5965257802801638e-05 2.1409638412983396e-02 0.0000000000000000e+00  1.0446269305044070e-05 2.1441762968145175e-02 0.0000000000000000e+00  3.8945226070910502e-06 2.1456213588592666e-02 0.0000000000000000e+00  -4.3485113625513066e-07 2.1451510691234077e-02 0.0000000000000000e+00  -1.3930011133545490e-05 2.1435386625700149e-02 0.0000000000000000e+00  -1.8611207319335932e-05 2.1310989599578903e-02 0.0000000000000000e+00  -1.0055404693324918e-04 2.0261637716351380e-02 0.0000000000000000e+00  2.6847790116962548e-07 1.9329497736773322e-07 0.0000000000000000e+00  1.8032165247953436e-07 -3.5846196634759768e-07 0.0000000000000000e+00  1.4062985325658148e-07 -3.7029340455640295e-07 0.0000000000000000e+00  -2.1975660716739356e-09 3.3900739496316623e-07 0.0000000000000000e+00  -8.5715938667801009e-09 -5.2511723416108746e-07 0.0000000000000000e+00  -3.1968785769191117e-08 -2.5524321932269783e-07 0.0000000000000000e+00  -7.6472662497573217e-08 7.2422330451646164e-08 0.0000000000000000e+00  -9.3880824264869005e-08 -1.9358377043563175e-07 0.0000000000000000e+00  -8.7682710169335755e-08 -7.1738375480676230e-08 0.0000000000000000e+00  8.1659575288983503e-09 4.1647188663328358e-08 0.0000000000000000e+00  7.8689434308950248e-08 1.2000382904329178e-08 0.0000000000000000e+00  8.1149077858716862e-08 -6.6153940776574515e-08 0.0000000000000000e+00  9.2252877035439755e-08 7.0296745344417280e-08 0.0000000000000000e+00  8.0560822229252053e-08 -2.3699274813069609e-07 0.0000000000000000e+00  1.4823358082745512e-08 -2.9065769736077748e-07 0.0000000000000000e+00  -2.4153916589568672e-08 -4.5827612926897620e-09 0.0000000000000000e+00  -1.1185392767619742e-07 -1.8619766797062770e-07 0.0000000000000000e+00  -2.9481981264305333e-07 -1.3831435614080779e-07 0.0000000000000000e+00  -8.4335717432296553e-08 -1.2152359841326131e-07 0.0000000000000000e+00  6.8008163229104881e-08 -3.6426710106840324e-07 0.0000000000000000e+00  -3.8271484379299850e-07 -5.0078421483623026e-07 0.0000000000000000e+00  -1.0270145730019978e-07 -1.3566562886254881e-07 0.0000000000000000e+00  -1.4924141850234942e-07 -1.1199136263939812e-07 0.0000000000000000e+00  -9.2544740169270610e-08 -6.9680626571251613e-08 0.0000000000000000e+00  -5.8547832197828808e-08 -4.0737510441806290e-08 0.0000000000000000e+00  -5.1833831409595668e-08 -3.6181839063902201e-08 0.0000000000000000e+00  -4.7274422572010520e-08 -3.1930571156013406e-08 0.0000000000000000e+00  -1.6171070027738756e-08 -2.0525373839734571e-08 0.0000000000000000e+00  -5.4545021353473003e-09 -1.0891839411787000e-08 0.0000000000000000e+00  -1.8937420006406488e-08 -4.2474199461191071e-08 0.0000000000000000e+00  -8.3009032627763893e-09 -4.9032611890600356e-08 0.0000000000000000e+00  -5.4368632576745805e-09 -5.3043335416863352e-08 0.0000000000000000e+00  -1.7087248155572760e-09 -5.0609277241065880e-08 0.0000000000000000e+00  5.6376828688433079e-09 -4.6987229296730179e-08 0.0000000000000000e+00  6.9253257291357500e-09 -3.9750086404346870e-08 0.0000000000000000e+00  1.3776724387304551e-08 -4.6082523790962284e-08 0.0000000000000000e+00  1.8651263448964494e-08 -3.0456278294963912e-08 0.0000000000000000e+00  2.5154082191007757e-08 -2.9061602655113411e-08 0.0000000000000000e+00  4.3415106968424054e-08 -3.3858163819249976e-08 0.0000000000000000e+00  5.4190242883622794e-08 -3.8977819481248028e-08 0.0000000000000000e+00  5.9242992447505764e-08 -4.4573179326588726e-08 0.0000000000000000e+00  1.0816816026690285e-07 -5.8028375418194743e-08 0.0000000000000000e+00  9.2717610020736622e-08 -3.8178277678369740e-08 0.0000000000000000e+00  8.8370519497074581e-08 -8.0916876513596637e-08 0.0000000000000000e+00  2.7847999369453469e-07 -4.4290559050315534e-07 0.0000000000000000e+00  -2.4520347506088436e-07 -1.0729023654780073e-08 0.0000000000000000e+00  2.9687802895642666e-07 3.0985340258052689e-07 0.0000000000000000e+00  4.1448769376611530e-07 -3.5854035281541044e-07 0.0000000000000000e+00  1.3083157927238295e-07 -1.5884681590550152e-07 0.0000000000000000e+00  -1.6431642226065304e-08 4.3399774887962961e-08 0.0000000000000000e+00  1.4800684074928180e-08 -1.8250515182379724e-07 0.0000000000000000e+00  1.3393174931721050e-08 -1.7005554129821325e-07 0.0000000000000000e+00  2.0759961264198847e-08 -1.7486983478840160e-08 0.0000000000000000e+00  1.6942802951541922e-08 -1.0504365889372101e-08 0.0000000000000000e+00  -1.5951730556936501e-08 4.8475519091615208e-08 0.0000000000000000e+00  2.7921023000459138e-08 -2.6486645134811705e-07 0.0000000000000000e+00  -4.0329474395274174e-08 6.6045752477838637e-08 0.0000000000000000e+00  2.6820304275968796e-08 -1.2244921483207281e-07 0.0000000000000000e+00  -2.2785373684167565e-08 -1.5737786999273616e-08 0.0000000000000000e+00  4.2921182155454596e-08 4.3948795228124683e-08 0.0000000000000000e+00  -3.4211052537157528e-08 -7.4381972585238636e-08 0.0000000000000000e+00  2.2607620677102088e-08 -2.7241195763033502e-07 0.0000000000000000e+00  -3.9020927671614134e-08 -1.4749270350309963e-07 0.0000000000000000e+00  4.5075827890402365e-09 -2.0627823414812803e-07 0.0000000000000000e+00  -4.3283678025350633e-08 9.1396568650041382e-10 0.0000000000000000e+00  -2.1484665426573028e-05 2.0534127271005252e-02 0.0000000000000000e+00  -1.6787266921036242e-05 2.1392435550973869e-02 0.0000000000000000e+00  -9.5432365229145793e-06 2.1436433372943941e-02 0.0000000000000000e+00  -4.6545792560652067e-06 2.1454639312710879e-02 0.0000000000000000e+00  -8.2565832228352204e-06 2.1452107746689764e-02 0.0000000000000000e+00  -1.2789607834222749e-05 2.1436297369385366e-02 0.0000000000000000e+00  -2.6538831336599193e-05 2.1400456164599412e-02 0.0000000000000000e+00  -3.2917691667360509e-05 2.1257678484685554e-02 0.0000000000000000e+00  -7.9948165364092497e-05 2.0278985768184436e-02 0.0000000000000000e+00  2.7935527357836599e-07 -6.4556400134805513e-08 0.0000000000000000e+00  2.1070551538411631e-07 -1.3336669038560597e-07 0.0000000000000000e+00  1.3357237651984031e-07 3.3577120766130708e-08 0.0000000000000000e+00  6.7966671054216382e-08 -1.9560994848575811e-07 0.0000000000000000e+00  2.3406189568624593e-09 -1.6837080457236295e-07 0.0000000000000000e+00  -2.0765685471943350e-08 -3.0354617814265257e-07 0.0000000000000000e+00  -3.9839096904431124e-08 1.8134346024391665e-07 0.0000000000000000e+00  -1.7349115789205435e-08 -1.2328481168958179e-07 0.0000000000000000e+00  1.3898981158289872e-08 6.2197020401683356e-08 0.0000000000000000e+00  -5.2504128158292497e-08 -8.7846291610215110e-08 0.0000000000000000e+00  3.8771116349891418e-08 -1.1586126204150451e-07 0.0000000000000000e+00  -1.1676590317394438e-08 -1.1962496885215877e-07 0.0000000000000000e+00  -3.5374669396152003e-08 6.4702647107606917e-08 0.0000000000000000e+00  -8.5928284620357122e-08 1.0786596677847193e-07 0.0000000000000000e+00  5.4646037520174280e-09 5.6068737539586414e-08 0.0000000000000000e+00  8.0121940884391893e-08 4.5915317925139797e-08 0.0000000000000000e+00  2.3291353287698178e-08 -6.1551197254525453e-08 0.0000000000000000e+00  2.1805332005546520e-08 -9.9096666444553288e-08 0.0000000000000000e+00  -7.0678771247601333e-08 -7.6831739672295704e-08 0.0000000000000000e+00  -1.4157372033224906e-08 -9.9060521283799526e-08 0.0000000000000000e+00  -3.9786084621435115e-08 4.0850645885453841e-08 0.0000000000000000e+00  3.3482407431917488e-09 -6.3335791784121813e-08 0.0000000000000000e+00  2.1758432423258765e-08 -6.7159922003727854e-08 0.0000000000000000e+00  -3.5234504892088097e-08 -2.2541900935317147e-07 0.0000000000000000e+00  -2.0397744283773997e-08 1.1662158919063804e-07 0.0000000000000000e+00  2.9515493829594689e-09 6.1670582348129472e-08 0.0000000000000000e+00  3.3596391609113741e-08 -1.3751073890959337e-07 0.0000000000000000e+00  4.5947009922948938e-08 -5.9054454197349703e-08 0.0000000000000000e+00  -4.1367935736685676e-09 6.7935943935665904e-10 0.0000000000000000e+00  6.2784142536835017e-08 9.9242232337857889e-08 0.0000000000000000e+00  2.9052082016340543e-08 -7.2133572719318641e-08 0.0000000000000000e+00  1.4002934387997089e-08 8.2705660495009691e-08 0.0000000000000000e+00  -7.4177457406458454e-08 -1.2206009490297348e-07 0.0000000000000000e+00  -5.0619518189961073e-08 6.7009549548691540e-08 0.0000000000000000e+00  -2.7145317944273621e-08 8.4868525133077652e-08 0.0000000000000000e+00  1.7391905689142215e-08 -4.0833902667737953e-07 0.0000000000000000e+00  5.2248981122163192e-08 -1.8974019391556518e-07 0.0000000000000000e+00  1.0627236347574057e-09 -1.8250837717587321e-07 0.0000000000000000e+00  3.5546728424653476e-09 6.9513485743533178e-08 0.0000000000000000e+00  -3.2553791905619984e-08 -1.7312662283367809e-07 0.0000000000000000e+00  7.2730620317896417e-08 -2.1450810826951852e-07 0.0000000000000000e+00  4.2472286596423218e-08 4.1740542037137586e-08 0.0000000000000000e+00  6.3881916670383514e-08 -1.2851491130419378e-08 0.0000000000000000e+00  -3.4872177338989968e-09 -3.2176004259458974e-08 0.0000000000000000e+00  -6.2804349954813674e-08 5.3684636455220464e-08 0.0000000000000000e+00  -9.6190001238796673e-08 -1.4820209645781342e-07 0.0000000000000000e+00  -7.8582405237240782e-08 -2.2611598426022600e-07 0.0000000000000000e+00  -1.4127205877471107e-07 -5.6619036360612053e-07 0.0000000000000000e+00  -1.7811030823804511e-07 1.5158954359052684e-07 0.0000000000000000e+00  6.2740408722876344e-05 1.7128233597475302e-02 0.0000000000000000e+00  3.7163614450959287e-05 2.1486630978771720e-02 0.0000000000000000e+00  -1.1350239146861441e-03 2.1025515458885931e-02 0.0000000000000000e+00  -6.7049255402057604e-05 2.1487361213067747e-02 0.0000000000000000e+00  -1.8649721396008859e-04 8.0472055598525202e-03 0.0000000000000000e+00  1.6463285125799996e-03 2.0157342278082888e-02 0.0000000000000000e+00  3.3447584389318297e-04 2.1416388231213744e-02 0.0000000000000000e+00  -3.1989736780371899e-04 2.1428042216574371e-02 0.0000000000000000e+00  -2.3854198466879652e-05 2.1493064261767451e-02 0.0000000000000000e+00  5.2494237095171078e-04 2.3785795422540464e-03 0.0000000000000000e+00  -1.2231334335536638e-03 1.9159885743526436e-02 0.0000000000000000e+00  9.5969306325050112e-05 2.1474240065566644e-02 0.0000000000000000e+00  6.7091095256326778e-04 1.8866154108225574e-02 0.0000000000000000e+00  6.3953823153810470e-04 2.0884165922106245e-02 0.0000000000000000e+00  1.0979411582523401e-03 2.1757285641934382e-02 0.0000000000000000e+00  3.3431709364818681e-03 1.8116315301677961e-02 0.0000000000000000e+00  -3.4214971258967959e-03 1.7829395118540863e-02 0.0000000000000000e+00  3.6677776176435978e-05 2.1395863268070889e-02 0.0000000000000000e+00  -2.3104609748838536e-05 2.1444620101082917e-02 0.0000000000000000e+00  -1.9816739985705095e-03 3.3274668938171655e-03 0.0000000000000000e+00  -1.2439427873321961e-04 2.1552100461296464e-02 0.0000000000000000e+00  -5.7860126713290205e-04 2.1715045296867845e-02 0.0000000000000000e+00  4.1554606147775618e-05 2.1434948753163190e-02 0.0000000000000000e+00  -4.4099973826355391e-06 2.1457699198498568e-02 0.0000000000000000e+00  1.2998483862655051e-04 2.1339659734582780e-02 0.0000000000000000e+00  -1.4077301955419999e-04 1.8699355867427988e-02 0.0000000000000000e+00  -7.8399438229633444e-04 1.4865316820625218e-03 0.0000000000000000e+00  -5.2156664679278326e-05 2.1434390037021196e-02 0.0000000000000000e+00  -1.0456040880399431e-04 2.1355914512802211e-02 0.0000000000000000e+00  -4.1214977714792717e-04 2.0997329099582476e-02 0.0000000000000000e+00  -3.4154690075985245e-05 2.1475771313519333e-02 0.0000000000000000e+00  2.9011898532346628e-03 4.2365149112518598e-03 0.0000000000000000e+00  -2.8145667146056990e-03 2.1384834429380394e-02 0.0000000000000000e+00  1.4420559442018166e-03 1.3617067955672959e-02 0.0000000000000000e+00  -6.8490357069490892e-04 2.0221109687968322e-02 0.0000000000000000e+00  6.0169740917760392e-05 2.1455971271063048e-02 0.0000000000000000e+00  1.4049801334678613e-04 2.1558578788089897e-02 0.0000000000000000e+00  -4.4321316530377183e-03 1.1827477244512032e-02 0.0000000000000000e+00  6.9013064156542877e-04 1.9762672315133175e-02 0.0000000000000000e+00  2.4381831087178218e-04 2.0963186738731373e-02 0.0000000000000000e+00  2.9447345129787498e-03 2.1920308516116645e-02 0.0000000000000000e+00  7.0139712643871348e-06 2.1436269619858804e-02 0.0000000000000000e+00  7.5013643961896915e-04 1.1554291622624022e-03 0.0000000000000000e+00  2.3528041088285219e-05 2.1270162098537680e-02 0.0000000000000000e+00  6.4485643088879581e-03 9.3962292772686428e-03 0.0000000000000000e+00  3.3894159428971265e-04 2.1639197630200578e-02 0.0000000000000000e+00  -2.7806103187273085e-05 2.1294960545823648e-02 0.0000000000000000e+00  -1.6357856888815587e-04 2.1051782624102483e-02 0.0000000000000000e+00  -5.0723264736599710e-05 2.1408820301493915e-02 0.0000000000000000e+00  -2.5480327403326782e-04 2.1566678855922422e-02 0.0000000000000000e+00  -1.2799465530160660e-03 2.2077000209001517e-02 0.0000000000000000e+00  -1.9704130435498743e-05 2.1466277465055191e-02 0.0000000000000000e+00  -3.3840639257497917e-05 1.5662738672318184e-03 0.0000000000000000e+00  -5.4118692128609933e-03 5.9150692796192785e-03 0.0000000000000000e+00  1.1723156193675858e-05 2.1246250296825805e-02 0.0000000000000000e+00  1.7980483471347882e-03 1.7125603591354511e-03 0.0000000000000000e+00  3.3083466964352204e-05 2.1287173682969729e-02 0.0000000000000000e+00  -1.7202752166031465e-03 2.0135143249299447e-02 0.0000000000000000e+00  -3.5384935111788660e-04 1.8578536733167676e-02 0.0000000000000000e+00  4.7038797245928590e-04 2.0165846087061221e-02 0.0000000000000000e+00  1.3167419796230036e-05 2.1466847437541972e-02 0.0000000000000000e+00  -2.2167219095236943e-03 1.4704719475820851e-02 0.0000000000000000e+00  -1.4625165539680347e-03 1.7882552888619535e-02 0.0000000000000000e+00  1.6836319861745878e-04 2.1454469747029935e-02 0.0000000000000000e+00  5.8359715943467978e-05 2.1470216764812439e-02 0.0000000000000000e+00  1.8637341372513795e-03 1.9073959632813643e-02 0.0000000000000000e+00  1.0398967471331875e-04 2.1375149887396031e-02 0.0000000000000000e+00  -3.8591008728102954e-05 2.1498307079692407e-02 0.0000000000000000e+00  2.1685070038785477e-04 4.7868074384822268e-03 0.0000000000000000e+00  -1.2798769426995306e-04 2.1482257775417894e-02 0.0000000000000000e+00  -6.7844343815027153e-04 2.1317971415046374e-02 0.0000000000000000e+00  -4.1796718533043480e-04 2.0354998508430214e-02 0.0000000000000000e+00  1.5974956276412471e-04 1.8828470712135035e-02 0.0000000000000000e+00  1.0996431197276557e-03 2.1069907886037038e-02 0.0000000000000000e+00  7.1065812447965355e-04 2.1349236346337272e-02 0.0000000000000000e+00  3.5666768460427433e-05 2.0837503068135647e-02 0.0000000000000000e+00  -5.7094154152888207e-05 2.0542686444002665e-02 0.0000000000000000e+00  -2.0716276205428922e-03 1.4765055228598820e-03 0.0000000000000000e+00  2.5294958039466053e-04 1.8264085803545708e-02 0.0000000000000000e+00  6.8962792827753916e-03 1.5718390752596043e-02 0.0000000000000000e+00  8.6247226758712220e-05 2.0245736795491666e-02 0.0000000000000000e+00  3.1764814947454441e-04 1.8601121077613941e-02 0.0000000000000000e+00  9.3602684201227673e-05 2.1425001046827090e-02 0.0000000000000000e+00  1.3199747469308317e-03 1.7715404049675355e-02 0.0000000000000000e+00  7.2497919877115933e-05 2.0660343596106495e-02 0.0000000000000000e+00  -6.4963398523636368e-05 2.0479194574320757e-02 0.0000000000000000e+00  -3.5400707590954827e-04 1.8791259036141095e-02 0.0000000000000000e+00  2.9723665880918986e-04 2.0119031231690329e-02 0.0000000000000000e+00  -5.6941082306676092e-04 7.1175699216166697e-04 0.0000000000000000e+00  -1.0564423988016634e-04 2.0507151320846441e-02 0.0000000000000000e+00  1.4390675310338836e-03 2.1732316339138136e-02 0.0000000000000000e+00  -3.7378686077873190e-05 2.1490303698159668e-02 0.0000000000000000e+00  -7.3762945425758961e-04 2.4689906462045841e-03 0.0000000000000000e+00  -6.2909705314724380e-03 1.9674632442168282e-02 0.0000000000000000e+00  2.9246854491493091e-03 2.0021765234527936e-02 0.0000000000000000e+00  -9.0033527437208976e-04 1.1514217639992582e-02 0.0000000000000000e+00  2.7136429234599835e-05 2.1482986098557321e-02 0.0000000000000000e+00  -5.1405673794587995e-05 2.0469802632923372e-02 0.0000000000000000e+00  -2.0657480452534456e-03 1.9125519227174915e-02 0.0000000000000000e+00  -3.5187820206320511e-04 2.1613750901698262e-02 0.0000000000000000e+00  6.5337179289081792e-05 2.0441846185343383e-02 0.0000000000000000e+00  -1.2950684705209772e-04 2.0156906733078125e-02 0.0000000000000000e+00  2.4319043075449629e-04 2.1274041250729216e-02 0.0000000000000000e+00  4.5382620081571729e-05 2.0090572455506203e-02 0.0000000000000000e+00  -5.8331405714602052e-05 2.0162806102445995e-02 0.0000000000000000e+00  -2.5359534202127801e-04 2.0290780499743439e-02 0.0000000000000000e+00  5.9716143760951395e-03 4.2726954811383262e-03 0.0000000000000000e+00  5.4675153274493426e-04 2.1190007332126011e-02 0.0000000000000000e+00  -3.8687895657543714e-03 2.4040719678149981e-03 0.0000000000000000e+00  9.1547888156385670e-04 2.0488817637636644e-02 0.0000000000000000e+00  2.8480523836407843e-05 2.1460210248586190e-02 0.0000000000000000e+00  5.7778635065937689e-03 1.9858036319873498e-02 0.0000000000000000e+00  -1.9274219370924686e-03 5.8099073364765363e-03 0.0000000000000000e+00  -1.0539006341794975e-03 2.1538364841094643e-02 0.0000000000000000e+00  3.0717204267651497e-05 2.1423894578026553e-02 0.0000000000000000e+00  -4.1116106123545502e-05 2.0117122126122541e-02 0.0000000000000000e+00  -1.1152344668743700e-05 2.1445031479951155e-02 0.0000000000000000e+00  -1.4477055339533707e-05 2.0060383549662539e-02 0.0000000000000000e+00  -8.3110769137297331e-05 2.1518080668089030e-02 0.0000000000000000e+00  3.0694337796602608e-05 2.1498730478950793e-02 0.0000000000000000e+00  -3.5629094592453974e-05 2.1461262410021536e-02 0.0000000000000000e+00  -3.9013275952709048e-05 2.1421160143574990e-02 0.0000000000000000e+00  -2.4216074682575391e-04 1.1443565730475357e-03 0.0000000000000000e+00  -7.0118349221363148e-04 2.0861772338467227e-02 0.0000000000000000e+00  -6.5866640942096970e-04 1.8734177845876141e-02 0.0000000000000000e+00  -1.0370182965948429e-04 1.9833432371047774e-02 0.0000000000000000e+00  9.8929818591132597e-05 2.0753792457065438e-02 0.0000000000000000e+00  -3.0301792753423016e-05 2.0122376266920386e-02 0.0000000000000000e+00  -3.0873276568292823e-04 2.1202643896067522e-02 0.0000000000000000e+00  -2.2116078291018791e-04 2.1538970351655931e-02 0.0000000000000000e+00  -7.2049980850051625e-05 2.1438664798184605e-02 0.0000000000000000e+00  -9.9140153157170556e-05 1.8029299694444147e-02 0.0000000000000000e+00  3.3064339024393263e-05 2.0669716613771219e-02 0.0000000000000000e+00  8.6156252727306184e-05 2.0415594792071924e-02 0.0000000000000000e+00  2.8292325816218372e-03 6.9604403943626788e-03 0.0000000000000000e+00  1.3670944277278736e-03 1.6059702164505921e-02 0.0000000000000000e+00  2.8974093224023425e-04 2.1598075018725110e-02 0.0000000000000000e+00  -2.9674492998937451e-06 2.1435542779306874e-02 0.0000000000000000e+00  2.4287616746087868e-04 1.1465245140202883e-03 0.0000000000000000e+00  2.1453893683762038e-03 1.0253539499430673e-02 0.0000000000000000e+00  -2.1706817610648108e-03 2.1256838851021892e-02 0.00000000000000