<?xml version="1.0"?>
<VTKFile type="UnstructuredGrid"  version="0.1"  >
<UnstructuredGrid>
<Piece  NumberOfPoints="853" NumberOfCells="1564">
<Points>
<DataArray  type="Float64"  NumberOfComponents="3"  format="ascii">0 0 0  1 0 0  1 2 0  2 2 0  2 3 0  1 3 0  1 5 0  0 5 0  0.09999999999981467 0 0  0.1999999999995579 0 0  0.2999999999992664 0 0  0.3999999999989749 0 0  0.4999999999986943 0 0  0.5999999999989468 0 0  0.69999999999921 0 0  0.7999999999994734 0 0  0.8999999999997368 0 0  1 0.0999999999997993 0  1 0.1999999999996293 0  1 0.2999999999994072 0  1 0.3999999999991157 0  1 0.4999999999988242 0  1 0.5999999999985328 0  1 0.6999999999982413 0  1 0.7999999999979498 0  1 0.8999999999976585 0  1 0.9999999999973885 0  1 1.09999999999763 0  1 1.199999999997894 0  1 1.299999999998157 0  1 1.39999999999842 0  1 1.499999999998683 0  1 1.599999999998947 0  1 1.69999999999921 0  1 1.799999999999474 0  1 1.899999999999737 0  1.1 2 0  1.2 2 0  1.3 2 0  1.4 2 0  1.5 2 0  1.6 2 0  1.7 2 0  1.8 2 0  1.9 2 0  2 2.1 0  2 2.2 0  2 2.299999999999999 0  2 2.399999999999999 0  2 2.5 0  2 2.6 0  2 2.7 0  2 2.8 0  2 2.9 0  1.9 3 0  1.8 3 0  1.7 3 0  1.6 3 0  1.5 3 0  1.4 3 0  1.3 3 0  1.2 3 0  1.1 3 0  1 3.1 0  1 3.2 0  1 3.299999999999999 0  1 3.399999999999999 0  1 3.499999999999999 0  1 3.599999999999999 0  1 3.699999999999999 0  1 3.799999999999999 0  1 3.899999999999999 0  1 4 0  1 4.1 0  1 4.199999999999999 0  1 4.3 0  1 4.399999999999999 0  1 4.5 0  1 4.6 0  1 4.699999999999999 0  1 4.8 0  1 4.899999999999999 0  0.8999999999995836 5 0  0.7999999999999998 5 0  0.7000000000006934 5 0  0.6000000000013869 5 0  0.5000000000020587 5 0  0.4000000000016644 5 0  0.3000000000012483 5 0  0.2000000000008322 5 0  0.100000000000416 5 0  0 4.899999999999999 0  0 4.8 0  0 4.699999999999999 0  0 4.6 0  0 4.499999999999999 0  0 4.399999999999999 0  0 4.299999999999999 0  0 4.199999999999998 0  0 4.099999999999999 0  0 3.999999999999999 0  0 3.899999999999999 0  0 3.799999999999999 0  0 3.699999999999998 0  0 3.599999999999999 0  0 3.499999999999999 0  0 3.399999999999999 0  0 3.299999999999999 0  0 3.199999999999998 0  0 3.099999999999999 0  0 2.999999999999999 0  0 2.899999999999999 0  0 2.799999999999999 0  0 2.699999999999999 0  0 2.599999999999999 0  0 2.5 0  0 2.399999999999999 0  0 2.299999999999999 0  0 2.199999999999999 0  0 2.1 0  0 2 0  0 1.899999999999999 0  0 1.799999999999999 0  0 1.699999999999999 0  0 1.599999999999999 0  0 1.5 0  0 1.399999999999999 0  0 1.299999999999999 0  0 1.199999999999999 0  0 1.1 0  0 0.9999999999999991 0  0 0.8999999999999995 0  0 0.7999999999999998 0  0 0.7000000000000002 0  0 0.5999999999999996 0  0 0.4999999999999991 0  0 0.3999999999999995 0  0 0.3000000000000007 0  0 0.1999999999999993 0  0 0.09999999999999964 0  0.6166569079913358 2.492277433160826 0  0.496804750005887 0.5479593764091243 0  0.5000000000000001 3.249999999999996 0  0.5010746240977132 4.146233959879961 0  1.15284373704454 2.508044505059064 0  0.5115316434189965 1.955545969082757 0  0.4999999999999211 1.349999999999999 0  0.4689171957673295 3.679717700049328 0  0.5612906571832685 4.583387229041095 0  1.571380248656294 2.43209333797878 0  0.4137140166874343 2.842788829011612 0  0.5924999999992734 0.9499999999993549 0  0.3530983922827606 2.277151253345766 0  0.3374999999999892 1.65000000000002 0  0.6755701284515059 1.666012036452857 0  0.7199661008857956 2.178412873198308 0  0.7334525640603837 2.809285576954712 0  0.3169326937911943 0.8062495868452884 0  0.3138857644565878 4.404201202807377 0  1.409460640835247 2.684430832001214 0  0.6887829815303428 3.902565963060691 0  0.6887829815303437 3.49743403693931 0  0.3083333333329294 0.3083333333329091 0  0.6836117544982274 0.312527457707179 0  0.3168915343039068 1.103810255435239 0  0.3022648077978692 2.555831328112146 0  1.699661159477641 2.699661159477642 0  0.3119190378227792 4.685290485878375 0  0.2857741186203023 3.950276087647296 0  0.2901796187683303 3.455359237536657 0  0.7185169821104359 4.329943392965225 0  1.329943392965171 2.281483017889551 0  0.723334373514972 3.086114578383237 0  0.8872939267661155 2.418951697643693 0  0.2683606383900753 3.107323129784811 0  0.7213259925957727 0.709299358069827 0  0.7248933848217622 1.191311282739447 0  0.9946254212153881 2.725887626364616 0  0.2534599397489012 2.044779020535383 0  0.2472238456272076 1.409843650950396 0  0.7466779594322671 1.891779594322711 0  0.751445254703026 4.751445254703024 0  1.751445254703023 2.248554745296977 0  0.2308928978487501 0.5537472873885254 0  1.08084306636788 2.246658930824796 0  0.7618726449950816 1.428238687173948 0  0.2386599654867296 4.176198813049547 0  0.2277655772754102 3.726664793307169 0  0.7721651484755335 4.113350253753182 0  0.7651749878558429 3.697580220958253 0  0.7656850901336474 3.299617602969102 0  0.4980799523915615 4.792356177625049 0  1.776143433203817 2.501327251062086 0  1.208880242020366 2.780272536786154 0  0.7911996774911533 4.53781383416655 0  1.542032468257247 2.216473886475725 0  0.7821379364211358 0.4969347839607502 0  0.5159796121199893 3.035942476666499 0  0.1994782516945909 2.77487521870957 0  0.2121527327795772 1.820534480974185 0  0.4961068761097068 0.2091473007262267 0  0.8212076849290986 2.630353036209751 0  0.5799159337228276 2.696151511257179 0  0.521656415787208 1.134485020795658 0  0.5198027681168929 0.7515845938922632 0  0.5314469083329 2.149920708093939 0  0.8022340879252141 0.949830582795168 0  0.5153738125904214 4.366355293244797 0  1.369864008384514 2.483509168319498 0  0.493575298272567 3.951867463619321 0  0.4920800561363075 3.451776843677214 0  0.1993224400966551 3.276384038573164 0  0.2040352237160636 2.400557997609325 0  0.504974575031962 1.751372233424674 0  0.499694528062418 1.552255000835086 0  0.1883367598055906 0.9438245084748886 0  0.1955706745794366 4.52834806507854 0  1.537127505356749 2.822707438948337 0  0.4347408457716787 2.442047619826679 0  0.9025073455677252 2.163749048054409 0  0.1773846193758333 1.247310083483254 0  0.1790840974615431 2.196648468506937 0  0.4241221003595179 0.9580937949419669 0  0.5742095764754795 2.324790710904777 0  0.1810593287337392 0.1648759332410678 0  0.830532350559559 0.1714616318750705 0  0.1799849931748815 2.936783687129475 0  0.1700601135178742 1.60121319242071 0  1.834470454079937 2.829637832875926 0  0.1703621671240551 4.83447045408015 0  0.829990552477618 1.736728469669415 0  0.3976185944449355 4.553236496558402 0  1.555161286389273 2.597039871453049 0  0.8411335884160621 2.955436961449523 0  0.6558334436081007 2.021696625357631 0  0.9866801805488914 2.554042320868289 0  0.4842405954457978 0.3674248026875673 0  0.1764810578689407 0.6996979327130011 0  0.5695354616787965 2.867647040045057 0  0.627187487409925 3.659501677082119 0  0.1696270647651137 0.3969694240763386 0  0.1588761645418826 3.579667620980887 0  0.3504882684591691 1.27320675399182 0  0.1613150679413317 4.323270191935268 0  0.8439697987258331 3.850137374173121 0  0.8582592809978382 3.556895103851285 0  1.2205291243602 2.169320339907971 0  0.8274853269315643 1.578104600362255 0  1.35480687481049 2.843927765640049 0  0.3677577894563876 1.843336837909973 0  0.3739468553634951 0.650971017289567 0  0.8175350952416559 2.032763453059245 0  1.255052217924463 2.621284633706947 0  0.6275139014702615 3.348445849128012 0  0.3500097682353719 0.1540209779916574 0  0.8470720720723232 0.3499999999992615 0  0.6516218900422024 0.1543745010121346 0  0.1570362925186822 4.034940931583384 0  0.6259846398323782 4.050387381032598 0  0.6243837498547334 0.4550390732635957 0  0.3764337664925781 4.252429701173535 0  0.3638240662285239 4.845889022715784 0  1.841058165929382 2.650192415774816 0  0.3538129642253492 3.310506091581767 0  0.3972635403128369 2.692091228217206 0  0.1493546974812203 3.864275696990799 0  0.8353411562925317 1.295894841996498 0  0.8510640038578493 4.24376876336904 0  0.3274183905250344 3.60709353923235 0  0.5690599951287177 3.803379429947107 0  0.3608465922823166 4.079737353610348 0  0.1464953658605303 2.61946161625165 0  0.8522365706696342 1.101349250004825 0  0.8462743532452005 0.8012074197151465 0  1.200278576701711 2.350961992006298 0  0.7326508832134601 2.394973662719556 0  0.6648495127067672 1.330201720826574 0  0.6421476239135478 4.851671120026346 0  1.851998954991891 2.359839578227697 0  1.041233083983184 2.39820467647697 0  0.8526824909154477 3.164884108363255 0  0.3803758752537028 2.126429281492964 0  0.6420376057736918 4.200165882518018 0  0.8501088759525246 4.401734271500779 0  1.398058673633662 2.147688933973308 0  0.8545605983512565 0.6343835319818829 0  1.072584152252426 2.853228937916825 0  0.8462674517070675 4.851971641280215 0  1.853403041422536 2.15097879283758 0  0.3930760976266651 3.836742518240063 0  0.1459746256495623 1.094533214558924 0  0.1449604950589468 3.41641374300675 0  0.360147239891959 1.507070948822289 0  0.1371791188132176 3.14627243933882 0  0.1373781948221472 1.948699496915061 0  0.8787091687571863 2.813528399808599 0  0.640346663916172 3.202454813230568 0  0.1447898426935465 4.687821488540191 0  1.681222862898315 2.858606263227755 0  0.6057151088165942 1.858748550906064 0  0.6959087423316198 1.05023956637574 0  0.6929156491439609 0.8504350871602226 0  0.3804448021156934 2.991689533004409 0  0.4069998378428982 3.136829475620725 0  0.6221516319980132 1.461574324140038 0  0.8595221684437686 4.671970471025065 0  1.655041305862432 2.135199824735708 0  0.8397218722524009 3.992237826182404 0  0.6648391028671355 4.465773104071535 0  1.462522756387578 2.335702451268775 0  1.107872485384334 2.648667416202137 0  0.6412014890654342 0.5971222632485688 0  0.8285592833177335 2.286311487886619 0  0.4769010664620999 2.574488224117733 0  0.3384926303571551 0.445684366822149 0  0.622529668465069 4.711696333659297 0  1.70347020696268 2.379656531207025 0  0.673413754958227 2.634174081826437 0  0.8424185362726981 3.41410212582428 0  0.1496314029302428 1.699903720635713 0  0.6712113209446312 2.961657242108266 0  0.1318402597280083 0.83835
[...]
<PointData  Vectors="f_15"> 
<DataArray  type="Float64"  Name="f_15"  NumberOfComponents="3" format="ascii">-1.4032489361535197e-06 1.6806793376929621e-06 0.0000000000000000e+00  1.9437468798161468e-06 2.1449746073336400e-06 0.0000000000000000e+00  4.2144257426486615e-06 -1.4640017740762685e-06 0.0000000000000000e+00  -3.2717760227922463e-08 -4.7854415462630770e-08 0.0000000000000000e+00  2.2854809177077846e-08 -2.8769258673016759e-08 0.0000000000000000e+00  -3.8840468515266345e-06 -3.8861145346623575e-07 0.0000000000000000e+00  2.0220626218076852e-06 -6.4492113089568329e-07 0.0000000000000000e+00  9.3691798846369454e-07 1.2290852463057459e-06 0.0000000000000000e+00  4.3107672558492093e-05 7.7431005672563679e-03 0.0000000000000000e+00  1.3476139410682325e-05 8.1706420636103866e-03 0.0000000000000000e+00  1.1365169270865501e-05 8.2322564572416858e-03 0.0000000000000000e+00  4.4518290910491551e-06 8.2456667663285497e-03 0.0000000000000000e+00  1.6036777677343995e-06 8.2514261852183381e-03 0.0000000000000000e+00  -4.1578035241187267e-07 8.2501250202441385e-03 0.0000000000000000e+00  -6.6093311974851694e-06 8.2425977283724361e-03 0.0000000000000000e+00  -8.8356353482488816e-06 8.1892954454003981e-03 0.0000000000000000e+00  -4.4075909481440517e-05 7.7687303801209648e-03 0.0000000000000000e+00  3.4511343506902156e-06 1.1400553086433037e-06 0.0000000000000000e+00  -2.7782728924178911e-07 -2.1292319096428102e-06 0.0000000000000000e+00  2.9362090779456633e-06 2.0262649041656010e-06 0.0000000000000000e+00  -1.0007105727705444e-06 4.8710380728112908e-07 0.0000000000000000e+00  -9.5809851200926367e-07 -2.2321812907703867e-06 0.0000000000000000e+00  -2.1430968523179430e-06 4.8238946714534662e-06 0.0000000000000000e+00  -1.0893666756280083e-08 6.8649279812383117e-07 0.0000000000000000e+00  1.2645495303557356e-06 -2.0524854340987985e-06 0.0000000000000000e+00  -2.3486426259365963e-06 6.4525479119889879e-07 0.0000000000000000e+00  6.0339674625293470e-07 2.1622535820316435e-06 0.0000000000000000e+00  1.4491666161911667e-06 -3.6325345977014287e-07 0.0000000000000000e+00  1.2444998912604641e-06 1.3457721699316057e-07 0.0000000000000000e+00  7.3194687723151426e-07 4.1837530007981106e-07 0.0000000000000000e+00  1.7040773740846637e-06 1.6645034106111944e-07 0.0000000000000000e+00  1.9161599499647585e-06 1.4168583687326692e-06 0.0000000000000000e+00  -1.0868478676110208e-06 -8.2383750567014626e-07 0.0000000000000000e+00  -2.6296498964859753e-06 -4.7182949242046490e-07 0.0000000000000000e+00  8.6169450432001916e-06 1.1956841064888762e-05 0.0000000000000000e+00  5.6703536980054383e-06 -1.7881865294360664e-06 0.0000000000000000e+00  4.3959295785917923e-06 5.8553938475069061e-06 0.0000000000000000e+00  2.5261791645104626e-06 2.1154737138731958e-06 0.0000000000000000e+00  5.8513560251896998e-07 -4.2917781108030808e-08 0.0000000000000000e+00  -7.0389324139614713e-08 -9.7408485638502627e-07 0.0000000000000000e+00  -3.7663328514351037e-07 -3.1173635238667643e-07 0.0000000000000000e+00  -2.7186494235753714e-07 -2.3741772888997308e-07 0.0000000000000000e+00  5.8775448748531551e-08 5.6449646253825545e-08 0.0000000000000000e+00  -1.9860476532537637e-07 -1.0216685641417698e-07 0.0000000000000000e+00  3.2930380799666765e-08 8.2494900656022577e-08 0.0000000000000000e+00  1.4078389641862991e-07 2.6603548568921484e-08 0.0000000000000000e+00  -4.4951094282647351e-08 -1.0867922608110636e-07 0.0000000000000000e+00  7.4202192787239211e-08 -1.7722614439428784e-08 0.0000000000000000e+00  1.6899851727576265e-07 2.2628384340190014e-07 0.0000000000000000e+00  5.7784853790750910e-08 -1.4879872287141604e-07 0.0000000000000000e+00  -3.4777063492145768e-09 -7.2233334530249087e-08 0.0000000000000000e+00  -2.2914269373109222e-07 1.1248330843392536e-07 0.0000000000000000e+00  1.8888597972839239e-08 -9.3155099231744897e-08 0.0000000000000000e+00  -6.4315918030640119e-08 -2.9536090408197912e-08 0.0000000000000000e+00  -3.0092707769398824e-08 8.0417329702361428e-08 0.0000000000000000e+00  1.8982804532751720e-07 -6.5381244922051366e-08 0.0000000000000000e+00  2.0598646487934129e-07 -1.5498563630406083e-07 0.0000000000000000e+00  -5.2557807032341608e-09 -2.1094042305077569e-07 0.0000000000000000e+00  5.2464086383037236e-07 -7.2491446689453212e-07 0.0000000000000000e+00  -2.1081774147549689e-08 -4.3289100073746387e-07 0.0000000000000000e+00  -2.8038464434615509e-07 -5.8758473684112150e-07 0.0000000000000000e+00  -2.4587901327671923e-06 3.1411583445709169e-06 0.0000000000000000e+00  -5.0485270956612140e-06 6.7316998655155010e-06 0.0000000000000000e+00  -5.7379669120170747e-06 -8.3231252321840518e-07 0.0000000000000000e+00  -9.9186853805847792e-06 7.9803295352898282e-06 0.0000000000000000e+00  1.4410124467950409e-06 3.0500347635337680e-07 0.0000000000000000e+00  -2.1759749242105111e-06 -2.3140770472544546e-07 0.0000000000000000e+00  1.8875492145609028e-06 1.3872259327655838e-06 0.0000000000000000e+00  2.4271137983198586e-06 2.7320101535953186e-06 0.0000000000000000e+00  6.2448620620299330e-07 -2.2692554344513469e-06 0.0000000000000000e+00  -7.6716708309569785e-07 1.5436947113090187e-06 0.0000000000000000e+00  -2.3627555215218493e-06 1.7627982172133802e-06 0.0000000000000000e+00  2.1745761138325326e-06 -6.6502056072908226e-07 0.0000000000000000e+00  -2.8502804961713387e-06 -1.0439027736497294e-07 0.0000000000000000e+00  1.1201585855752248e-06 1.1136393950452177e-06 0.0000000000000000e+00  -1.9714140925210186e-08 1.1891923426153435e-06 0.0000000000000000e+00  3.9327928226276170e-06 2.7687027523311645e-07 0.0000000000000000e+00  -2.5183467832079361e-06 -9.8998073822403053e-07 0.0000000000000000e+00  6.0527185187541798e-07 6.0555367734097731e-07 0.0000000000000000e+00  -3.1172002316512981e-06 1.0054172381780012e-06 0.0000000000000000e+00  1.2118020057087755e-06 -1.0141434839444807e-06 0.0000000000000000e+00  -1.5266696822156718e-06 2.4157244773304565e-06 0.0000000000000000e+00  -1.5970366867198046e-05 7.9016718170027561e-03 0.0000000000000000e+00  -5.5928258573067870e-06 8.2234865444951281e-03 0.0000000000000000e+00  -3.4163413125001723e-06 8.2424120473617770e-03 0.0000000000000000e+00  -1.9333218084601008e-06 8.2513599483233242e-03 0.0000000000000000e+00  -3.4944712042494939e-06 8.2504699972420908e-03 0.0000000000000000e+00  -5.4434757850388062e-06 8.2438964348646674e-03 0.0000000000000000e+00  -1.1662138610000909e-05 8.2294668077353590e-03 0.0000000000000000e+00  -1.4759518841003615e-05 8.1687708704043394e-03 0.0000000000000000e+00  -3.4854425173712591e-05 7.7755118973334217e-03 0.0000000000000000e+00  3.8109110929812887e-06 2.0376872464723167e-06 0.0000000000000000e+00  1.2059761872923381e-06 -1.7111775400743022e-06 0.0000000000000000e+00  2.9243269596006211e-06 2.6917242906043193e-07 0.0000000000000000e+00  2.8472135440910527e-06 3.2503627104704898e-06 0.0000000000000000e+00  -9.3502897559699403e-07 -2.3112723552440115e-06 0.0000000000000000e+00  -1.9178971267762467e-06 -1.9657998630485963e-07 0.0000000000000000e+00  -1.8100645874311167e-06 5.8854488240694750e-06 0.0000000000000000e+00  -3.2869740298175833e-07 -1.6935625766169677e-06 0.0000000000000000e+00  6.7938511362423576e-07 8.8365097409337219e-07 0.0000000000000000e+00  -2.5089362999908256e-06 8.2960778590741754e-07 0.0000000000000000e+00  4.4621948933987368e-06 2.2679800251183297e-06 0.0000000000000000e+00  5.5145794021972250e-07 -2.0953338306706462e-07 0.0000000000000000e+00  -1.8695578811502318e-07 -2.2113426659482470e-06 0.0000000000000000e+00  -5.5017075713927554e-06 2.7236861322377689e-06 0.0000000000000000e+00  -5.5317268453407224e-07 1.7906096487639465e-06 0.0000000000000000e+00  4.4304939074287598e-06 2.2223744884439701e-06 0.0000000000000000e+00  -1.7164944912038526e-07 -1.9183738753764070e-06 0.0000000000000000e+00  1.9096604751721696e-06 1.6461934446776140e-06 0.0000000000000000e+00  -1.2960127277689110e-06 9.6440158600117639e-07 0.0000000000000000e+00  1.0246505605583094e-06 -2.7097616899068836e-06 0.0000000000000000e+00  -2.7717480935345163e-06 1.5461464220654891e-06 0.0000000000000000e+00  -7.0632727756734380e-07 1.5763702068232832e-06 0.0000000000000000e+00  6.8645187351369449e-07 4.0721702720368806e-07 0.0000000000000000e+00  -1.3545593104012629e-07 -8.6340986636370755e-07 0.0000000000000000e+00  -6.4263663126790074e-07 -7.2633472544078664e-07 0.0000000000000000e+00  2.2182371080170506e-08 7.9199167966741240e-07 0.0000000000000000e+00  2.9752511688185667e-06 1.2615442869151450e-06 0.0000000000000000e+00  2.2314856669897868e-06 -1.1681034396653524e-06 0.0000000000000000e+00  -7.9203954635904709e-07 -9.3501408899500157e-07 0.0000000000000000e+00  1.5879774402332849e-06 3.6496374418679326e-06 0.0000000000000000e+00  2.4826463535695038e-07 -6.2803568372523735e-07 0.0000000000000000e+00  1.2499495099970071e-06 -1.4236141962383467e-06 0.0000000000000000e+00  -3.6661695217898795e-07 2.8052106935946696e-06 0.0000000000000000e+00  3.5157543795126580e-07 -1.3461458418702419e-06 0.0000000000000000e+00  -6.4039645953595090e-07 -8.8805948163126983e-09 0.0000000000000000e+00  -6.6086170469550192e-07 2.8351230959275106e-06 0.0000000000000000e+00  2.3079495971437692e-06 2.0988361233566686e-06 0.0000000000000000e+00  4.4855631897869683e-07 -1.6774932053850354e-06 0.0000000000000000e+00  -9.4942653830320581e-08 -7.8678305938067152e-07 0.0000000000000000e+00  -3.6043640774003474e-06 6.6613774288005640e-07 0.0000000000000000e+00  6.3392719488557956e-07 1.8878944503157124e-06 0.0000000000000000e+00  1.8574231022650512e-06 1.7409064406443337e-06 0.0000000000000000e+00  5.0282604084366846e-06 7.0657391116322310e-07 0.0000000000000000e+00  -7.7332970447690773e-08 -1.0179066700832403e-06 0.0000000000000000e+00  -2.6000291912496001e-06 -1.2683417036580122e-06 0.0000000000000000e+00  -5.0106990211249051e-06 2.7104472525623539e-06 0.0000000000000000e+00  -6.3146419793218437e-07 5.3154517419002526e-07 0.0000000000000000e+00  -3.9462666966395520e-08 -1.0526198392557815e-06 0.0000000000000000e+00  -5.1508285831317341e-07 -2.4068636287248979e-07 0.0000000000000000e+00  2.3832456569283050e-05 6.5878744873436451e-03 0.0000000000000000e+00  1.4477783203914550e-05 8.2643822158245724e-03 0.0000000000000000e+00  -4.3717160204836714e-04 8.0864540484929335e-03 0.0000000000000000e+00  -2.5903296446103829e-05 8.2652870173036581e-03 0.0000000000000000e+00  -7.3952603909564215e-05 3.0967804327881863e-03 0.0000000000000000e+00  6.3213357635778192e-04 7.7509299576993809e-03 0.0000000000000000e+00  1.2816154155823609e-04 8.2368240514754474e-03 0.0000000000000000e+00  -1.2325890646077263e-04 8.2423222095770431e-03 0.0000000000000000e+00  -9.4994738344889557e-06 8.2668226306585324e-03 0.0000000000000000e+00  2.0540089815919069e-04 9.1241151256003523e-04 0.0000000000000000e+00  -4.7198547132573594e-04 7.3659955936716563e-03 0.0000000000000000e+00  3.6909636741206313e-05 8.2592553919042921e-03 0.0000000000000000e+00  2.5813872400602575e-04 7.2559214435732990e-03 0.0000000000000000e+00  2.4632808864330226e-04 8.0306539779402084e-03 0.0000000000000000e+00  4.2360873627644727e-04 8.3684097159527800e-03 0.0000000000000000e+00  1.2856464133289814e-03 6.9698089214378913e-03 0.0000000000000000e+00  -1.3153897432151155e-03 6.8589807371386294e-03 0.0000000000000000e+00  1.4220643361235752e-05 8.2281147040394863e-03 0.0000000000000000e+00  -9.3911001384491350e-06 8.2465615248830618e-03 0.0000000000000000e+00  -7.6216179690302450e-04 1.2804548682721893e-03 0.0000000000000000e+00  -4.7545823941727732e-05 8.2876666773446135e-03 0.0000000000000000e+00  -2.2292539980170177e-04 8.3505193975313072e-03 0.0000000000000000e+00  1.6585104520707835e-05 8.2416578129766004e-03 0.0000000000000000e+00  -2.4541726255883748e-06 8.2507015753905295e-03 0.0000000000000000e+00  5.0266031245879632e-05 8.2067678136031608e-03 0.0000000000000000e+00  -5.3619771342412762e-05 7.1899172628170785e-03 0.0000000000000000e+00  -3.0193604288994945e-04 5.7167298795631231e-04 0.0000000000000000e+00  -2.1038504452467517e-05 8.2420343940124152e-03 0.0000000000000000e+00  -4.0504185404350439e-05 8.2114162025604693e-03 0.0000000000000000e+00  -1.5903815475757266e-04 8.0728386048024257e-03 0.0000000000000000e+00  -1.2794639349079018e-05 8.2574568819810071e-03 0.0000000000000000e+00  1.1115900170147249e-03 1.6347301856472914e-03 0.0000000000000000e+00  -1.0808118458572385e-03 8.2153840449604391e-03 0.0000000000000000e+00  5.5404503197113264e-04 5.2381829269508772e-03 0.0000000000000000e+00  -2.6292377814477949e-04 7.7747772252551705e-03 0.0000000000000000e+00  2.3731598850632942e-05 8.2494235605296787e-03 0.0000000000000000e+00  5.3796323500664778e-05 8.2886713144132880e-03 0.0000000000000000e+00  -1.6949498361969128e-03 4.5450405494711086e-03 0.0000000000000000e+00  2.6557748662566654e-04 7.5980408807425990e-03 0.0000000000000000e+00  9.2104679874499226e-05 8.0528035811070348e-03 0.0000000000000000e+00  1.1357596414060789e-03 8.4255645042033839e-03 0.0000000000000000e+00  3.0614611043209638e-06 8.2406312768160787e-03 0.0000000000000000e+00  2.8884423688004684e-04 4.4343040132765370e-04 0.0000000000000000e+00  9.2276219094395653e-06 8.1810188659279855e-03 0.0000000000000000e+00  2.4884016680158786e-03 3.6155322997404558e-03 0.0000000000000000e+00  1.2894744665224156e-04 8.3115402291550639e-03 0.0000000000000000e+00  -1.0110786244473407e-05 8.1825003116400095e-03 0.0000000000000000e+00  -6.3304830847421288e-05 8.0949761225333344e-03 0.0000000000000000e+00  -1.9774785194528307e-05 8.2261946832413724e-03 0.0000000000000000e+00  -9.8440009901981131e-05 8.2871540242349297e-03 0.0000000000000000e+00  -4.9510976514131584e-04 8.4834584867346432e-03 0.0000000000000000e+00  -7.8954201286018398e-06 8.2564156518176880e-03 0.0000000000000000e+00  -1.2865527878280350e-05 6.0261447320246280e-04 0.0000000000000000e+00  -2.0868889834236180e-03 2.2902927722260789e-03 0.0000000000000000e+00  4.4833146263615791e-06 8.1680789997555948e-03 0.0000000000000000e+00  6.8929081473559589e-04 6.6074223688950614e-04 0.0000000000000000e+00  1.2359401747394065e-05 8.1848593048582802e-03 0.0000000000000000e+00  -6.6237307082800455e-04 7.7419162156280429e-03 0.0000000000000000e+00  -1.3536524152543168e-04 7.1348175811656025e-03 0.0000000000000000e+00  1.8192756700625087e-04 7.7525445757962996e-03 0.0000000000000000e+00  5.1373111269276119e-06 8.2559178158893003e-03 0.0000000000000000e+00  -8.5490772361815597e-04 5.6499581533984026e-03 0.0000000000000000e+00  -5.6446952211792805e-04 6.8769925298485185e-03 0.0000000000000000e+00  6.4743725257268616e-05 8.2516482716020814e-03 0.0000000000000000e+00  2.2694736931012923e-05 8.2577317499262348e-03 0.0000000000000000e+00  7.1784437142142165e-04 7.3351056213879001e-03 0.0000000000000000e+00  3.9614100314286036e-05 8.2144753103771811e-03 0.0000000000000000e+00  -1.5048798067438610e-05 8.2691116187494466e-03 0.0000000000000000e+00  8.0252932997165613e-05 1.8479458425502521e-03 0.0000000000000000e+00  -4.9426049488801123e-05 8.2630907896811701e-03 0.0000000000000000e+00  -2.6142080397160804e-04 8.1988379562616918e-03 0.0000000000000000e+00  -1.6283200579284175e-04 7.8198394487883800e-03 0.0000000000000000e+00  6.1983362437338530e-05 7.2355296073363575e-03 0.0000000000000000e+00  4.2171580795120884e-04 8.1043045345177145e-03 0.0000000000000000e+00  2.7420576704297191e-04 8.2115879322989943e-03 0.0000000000000000e+00  1.1449518360390225e-05 8.0024042048409388e-03 0.0000000000000000e+00  -2.5039157242483840e-05 7.8784720896803353e-03 0.0000000000000000e+00  -7.9387487894682566e-04 5.6753093153930057e-04 0.0000000000000000e+00  9.6932813744694606e-05 7.0226488936231705e-03 0.0000000000000000e+00  2.6486493588425294e-03 6.0386663395806542e-03 0.0000000000000000e+00  3.0503522035477806e-05 7.7601958686999706e-03 0.0000000000000000e+00  1.2042959959922119e-04 7.1343871637638088e-03 0.0000000000000000e+00  3.6102747489541958e-05 8.2403931102838224e-03 0.0000000000000000e+00  5.0727204292167968e-04 6.8136940549864185e-03 0.0000000000000000e+00  3.3116930405776409e-05 7.9303635200746944e-03 0.0000000000000000e+00  -2.9209361978531731e-05 7.8517997400932970e-03 0.0000000000000000e+00  -1.3251235762473174e-04 7.2045323269513770e-03 0.0000000000000000e+00  1.1141508757461415e-04 7.7163243553012460e-03 0.0000000000000000e+00  -2.1756543868008309e-04 2.7362523678839688e-04 0.0000000000000000e+00  -4.5025412049375235e-05 7.8600817939751266e-03 0.0000000000000000e+00  5.5778936477137255e-04 8.3241800061667048e-03 0.0000000000000000e+00  -1.4744627333172241e-05 8.2659000153683018e-03 0.0000000000000000e+00  -2.8638818571679209e-04 9.4864338431722907e-04 0.0000000000000000e+00  -2.4217688531283812e-03 7.5276748186548529e-03 0.0000000000000000e+00  1.1267842919170318e-03 7.6978604693413635e-03 0.0000000000000000e+00  -3.4086806521602754e-04 4.4270507545936897e-03 0.0000000000000000e+00  1.0635983897713988e-05 8.2626490072370464e-03 0.0000000000000000e+00  -1.9490684628105047e-05 7.8462894175050750e-03 0.0000000000000000e+00  -7.9410438582244627e-04 7.3545708866347703e-03 0.0000000000000000e+00  -1.3557103114768829e-04 8.3139389878403649e-03 0.0000000000000000e+00  2.5510251191271960e-05 7.8365255920223691e-03 0.0000000000000000e+00  -4.9059052931189683e-05 7.7281762185075886e-03 0.0000000000000000e+00  9.3546435646922022e-05 8.1807725492189683e-03 0.0000000000000000e+00  1.9941270527722552e-05 7.6867827735626606e-03 0.0000000000000000e+00  -2.1699282366808382e-05 7.7011299708458613e-03 0.0000000000000000e+00  -9.6471039873061401e-05 7.7283239895900311e-03 0.0000000000000000e+00  2.2811830136524407e-03 1.6344775141405262e-03 0.0000000000000000e+00  2.0831324432499319e-04 8.1132273830643638e-03 0.0000000000000000e+00  -1.4770024295330999e-03 9.2193734502678325e-04 0.0000000000000000e+00  3.5167526089844106e-04 7.8802626540325545e-03 0.0000000000000000e+00  1.1258109225229375e-05 8.2538119634969574e-03 0.0000000000000000e+00  2.2287265244740791e-03 7.6095634725671032e-03 0.0000000000000000e+00  -7.3790693319765498e-04 2.2345440998076415e-03 0.0000000000000000e+00  -4.0639257113752242e-04 8.2816598565457356e-03 0.0000000000000000e+00  1.2782325218000813e-05 8.2383552243486431e-03 0.0000000000000000e+00  -1.7843176428462031e-05 7.6937734207719859e-03 0.0000000000000000e+00  -5.3617841324278970e-06 8.2461414188546595e-03 0.0000000000000000e+00  -5.0951541976173309e-06 7.6762790987287928e-03 0.0000000000000000e+00  -3.2030601922739079e-05 8.2767034263238476e-03 0.0000000000000000e+00  1.1843242602177030e-05 8.2687666518753838e-03 0.0000000000000000e+00  -1.3845601775128913e-05 8.2546697172208947e-03 0.0000000000000000e+00  -1.6251243214213056e-05 8.2371722364390654e-03 0.0000000000000000e+00  -9.2011993771988254e-05 4.3821638557916995e-04 0.0000000000000000e+00  -2.7056938576754716e-04 8.0230904557255477e-03 0.0000000000000000e+00  -2.5214312009353020e-04 7.2033796471577703e-03 0.0000000000000000e+00  -4.0771300752396396e-05 7.5762194620495943e-03 0.0000000000000000e+00  3.5915176046098852e-05 7.9568648171132652e-03 0.0000000000000000e+00  -1.2050100301552938e-05 7.6911791331955616e-03 0.0000000000000000e+00  -1.1896286526509511e-04 8.1532302560643147e-03 0.0000000000000000e+00  -8.5414862346645825e-05 8.2848775527488219e-03 0.0000000000000000e+00  -2.7881058074616167e-05 8.2456478085462439e-03 0.0000000000000000e+00  -3.8478788676579583e-05 6.8982340401833554e-03 0.0000000000000000e+00  9.9273195529843086e-06 7.9204259949384390e-03 0.0000000000000000e+00  3.7841217810229602e-05 7.8149564398573585e-03 0.0000000000000000e+00  1.0906235067744650e-03 2.6837016927300237e-03 0.0000000000000000e+00  5.2731394545090990e-04 6.1768030952286763e-03 0.0000000000000000e+00  1.1095944156099143e-04 8.3057727468357403e-03 0.0000000000000000e+00  -1.0777846783983128e-06 8.2427841921813121e-03 0.0000000000000000e+00  9.3245423976051023e-05 4.3964090721255577e-04 0.0000000000000000e+00  8.2374002780351676e-04 3.9425665198272088e-03 0.0000000000000000e+00  -8.2603320191785678e-04 8.0953101788640083e-03 0.0000000000000000e+00  4.227776599325394