<?xml version="1.0"?>
<VTKFile type="UnstructuredGrid"  version="0.1"  >
<UnstructuredGrid>
<Piece  NumberOfPoints="853" NumberOfCells="1564">
<Points>
<DataArray  type="Float64"  NumberOfComponents="3"  format="ascii">0 0 0  1 0 0  1 2 0  2 2 0  2 3 0  1 3 0  1 5 0  0 5 0  0.09999999999981467 0 0  0.1999999999995579 0 0  0.2999999999992664 0 0  0.3999999999989749 0 0  0.4999999999986943 0 0  0.5999999999989468 0 0  0.69999999999921 0 0  0.7999999999994734 0 0  0.8999999999997368 0 0  1 0.0999999999997993 0  1 0.1999999999996293 0  1 0.2999999999994072 0  1 0.3999999999991157 0  1 0.4999999999988242 0  1 0.5999999999985328 0  1 0.6999999999982413 0  1 0.7999999999979498 0  1 0.8999999999976585 0  1 0.9999999999973885 0  1 1.09999999999763 0  1 1.199999999997894 0  1 1.299999999998157 0  1 1.39999999999842 0  1 1.499999999998683 0  1 1.599999999998947 0  1 1.69999999999921 0  1 1.799999999999474 0  1 1.899999999999737 0  1.1 2 0  1.2 2 0  1.3 2 0  1.4 2 0  1.5 2 0  1.6 2 0  1.7 2 0  1.8 2 0  1.9 2 0  2 2.1 0  2 2.2 0  2 2.299999999999999 0  2 2.399999999999999 0  2 2.5 0  2 2.6 0  2 2.7 0  2 2.8 0  2 2.9 0  1.9 3 0  1.8 3 0  1.7 3 0  1.6 3 0  1.5 3 0  1.4 3 0  1.3 3 0  1.2 3 0  1.1 3 0  1 3.1 0  1 3.2 0  1 3.299999999999999 0  1 3.399999999999999 0  1 3.499999999999999 0  1 3.599999999999999 0  1 3.699999999999999 0  1 3.799999999999999 0  1 3.899999999999999 0  1 4 0  1 4.1 0  1 4.199999999999999 0  1 4.3 0  1 4.399999999999999 0  1 4.5 0  1 4.6 0  1 4.699999999999999 0  1 4.8 0  1 4.899999999999999 0  0.8999999999995836 5 0  0.7999999999999998 5 0  0.7000000000006934 5 0  0.6000000000013869 5 0  0.5000000000020587 5 0  0.4000000000016644 5 0  0.3000000000012483 5 0  0.2000000000008322 5 0  0.100000000000416 5 0  0 4.899999999999999 0  0 4.8 0  0 4.699999999999999 0  0 4.6 0  0 4.499999999999999 0  0 4.399999999999999 0  0 4.299999999999999 0  0 4.199999999999998 0  0 4.099999999999999 0  0 3.999999999999999 0  0 3.899999999999999 0  0 3.799999999999999 0  0 3.699999999999998 0  0 3.599999999999999 0  0 3.499999999999999 0  0 3.399999999999999 0  0 3.299999999999999 0  0 3.199999999999998 0  0 3.099999999999999 0  0 2.999999999999999 0  0 2.899999999999999 0  0 2.799999999999999 0  0 2.699999999999999 0  0 2.599999999999999 0  0 2.5 0  0 2.399999999999999 0  0 2.299999999999999 0  0 2.199999999999999 0  0 2.1 0  0 2 0  0 1.899999999999999 0  0 1.799999999999999 0  0 1.699999999999999 0  0 1.599999999999999 0  0 1.5 0  0 1.399999999999999 0  0 1.299999999999999 0  0 1.199999999999999 0  0 1.1 0  0 0.9999999999999991 0  0 0.8999999999999995 0  0 0.7999999999999998 0  0 0.7000000000000002 0  0 0.5999999999999996 0  0 0.4999999999999991 0  0 0.3999999999999995 0  0 0.3000000000000007 0  0 0.1999999999999993 0  0 0.09999999999999964 0  0.6166569079913358 2.492277433160826 0  0.496804750005887 0.5479593764091243 0  0.5000000000000001 3.249999999999996 0  0.5010746240977132 4.146233959879961 0  1.15284373704454 2.508044505059064 0  0.5115316434189965 1.955545969082757 0  0.4999999999999211 1.349999999999999 0  0.4689171957673295 3.679717700049328 0  0.5612906571832685 4.583387229041095 0  1.571380248656294 2.43209333797878 0  0.4137140166874343 2.842788829011612 0  0.5924999999992734 0.9499999999993549 0  0.3530983922827606 2.277151253345766 0  0.3374999999999892 1.65000000000002 0  0.6755701284515059 1.666012036452857 0  0.7199661008857956 2.178412873198308 0  0.7334525640603837 2.809285576954712 0  0.3169326937911943 0.8062495868452884 0  0.3138857644565878 4.404201202807377 0  1.409460640835247 2.684430832001214 0  0.6887829815303428 3.902565963060691 0  0.6887829815303437 3.49743403693931 0  0.3083333333329294 0.3083333333329091 0  0.6836117544982274 0.312527457707179 0  0.3168915343039068 1.103810255435239 0  0.3022648077978692 2.555831328112146 0  1.699661159477641 2.699661159477642 0  0.3119190378227792 4.685290485878375 0  0.2857741186203023 3.950276087647296 0  0.2901796187683303 3.455359237536657 0  0.7185169821104359 4.329943392965225 0  1.329943392965171 2.281483017889551 0  0.723334373514972 3.086114578383237 0  0.8872939267661155 2.418951697643693 0  0.2683606383900753 3.107323129784811 0  0.7213259925957727 0.709299358069827 0  0.7248933848217622 1.191311282739447 0  0.9946254212153881 2.725887626364616 0  0.2534599397489012 2.044779020535383 0  0.2472238456272076 1.409843650950396 0  0.7466779594322671 1.891779594322711 0  0.751445254703026 4.751445254703024 0  1.751445254703023 2.248554745296977 0  0.2308928978487501 0.5537472873885254 0  1.08084306636788 2.246658930824796 0  0.7618726449950816 1.428238687173948 0  0.2386599654867296 4.176198813049547 0  0.2277655772754102 3.726664793307169 0  0.7721651484755335 4.113350253753182 0  0.7651749878558429 3.697580220958253 0  0.7656850901336474 3.299617602969102 0  0.4980799523915615 4.792356177625049 0  1.776143433203817 2.501327251062086 0  1.208880242020366 2.780272536786154 0  0.7911996774911533 4.53781383416655 0  1.542032468257247 2.216473886475725 0  0.7821379364211358 0.4969347839607502 0  0.5159796121199893 3.035942476666499 0  0.1994782516945909 2.77487521870957 0  0.2121527327795772 1.820534480974185 0  0.4961068761097068 0.2091473007262267 0  0.8212076849290986 2.630353036209751 0  0.5799159337228276 2.696151511257179 0  0.521656415787208 1.134485020795658 0  0.5198027681168929 0.7515845938922632 0  0.5314469083329 2.149920708093939 0  0.8022340879252141 0.949830582795168 0  0.5153738125904214 4.366355293244797 0  1.369864008384514 2.483509168319498 0  0.493575298272567 3.951867463619321 0  0.4920800561363075 3.451776843677214 0  0.1993224400966551 3.276384038573164 0  0.2040352237160636 2.400557997609325 0  0.504974575031962 1.751372233424674 0  0.499694528062418 1.552255000835086 0  0.1883367598055906 0.9438245084748886 0  0.1955706745794366 4.52834806507854 0  1.537127505356749 2.822707438948337 0  0.4347408457716787 2.442047619826679 0  0.9025073455677252 2.163749048054409 0  0.1773846193758333 1.247310083483254 0  0.1790840974615431 2.196648468506937 0  0.4241221003595179 0.9580937949419669 0  0.5742095764754795 2.324790710904777 0  0.1810593287337392 0.1648759332410678 0  0.830532350559559 0.1714616318750705 0  0.1799849931748815 2.936783687129475 0  0.1700601135178742 1.60121319242071 0  1.834470454079937 2.829637832875926 0  0.1703621671240551 4.83447045408015 0  0.829990552477618 1.736728469669415 0  0.3976185944449355 4.553236496558402 0  1.555161286389273 2.597039871453049 0  0.8411335884160621 2.955436961449523 0  0.6558334436081007 2.021696625357631 0  0.9866801805488914 2.554042320868289 0  0.4842405954457978 0.3674248026875673 0  0.1764810578689407 0.6996979327130011 0  0.5695354616787965 2.867647040045057 0  0.627187487409925 3.659501677082119 0  0.1696270647651137 0.3969694240763386 0  0.1588761645418826 3.579667620980887 0  0.3504882684591691 1.27320675399182 0  0.1613150679413317 4.323270191935268 0  0.8439697987258331 3.850137374173121 0  0.8582592809978382 3.556895103851285 0  1.2205291243602 2.169320339907971 0  0.8274853269315643 1.578104600362255 0  1.35480687481049 2.843927765640049 0  0.3677577894563876 1.843336837909973 0  0.3739468553634951 0.650971017289567 0  0.8175350952416559 2.032763453059245 0  1.255052217924463 2.621284633706947 0  0.6275139014702615 3.348445849128012 0  0.3500097682353719 0.1540209779916574 0  0.8470720720723232 0.3499999999992615 0  0.6516218900422024 0.1543745010121346 0  0.1570362925186822 4.034940931583384 0  0.6259846398323782 4.050387381032598 0  0.6243837498547334 0.4550390732635957 0  0.3764337664925781 4.252429701173535 0  0.3638240662285239 4.845889022715784 0  1.841058165929382 2.650192415774816 0  0.3538129642253492 3.310506091581767 0  0.3972635403128369 2.692091228217206 0  0.1493546974812203 3.864275696990799 0  0.8353411562925317 1.295894841996498 0  0.8510640038578493 4.24376876336904 0  0.3274183905250344 3.60709353923235 0  0.5690599951287177 3.803379429947107 0  0.3608465922823166 4.079737353610348 0  0.1464953658605303 2.61946161625165 0  0.8522365706696342 1.101349250004825 0  0.8462743532452005 0.8012074197151465 0  1.200278576701711 2.350961992006298 0  0.7326508832134601 2.394973662719556 0  0.6648495127067672 1.330201720826574 0  0.6421476239135478 4.851671120026346 0  1.851998954991891 2.359839578227697 0  1.041233083983184 2.39820467647697 0  0.8526824909154477 3.164884108363255 0  0.3803758752537028 2.126429281492964 0  0.6420376057736918 4.200165882518018 0  0.8501088759525246 4.401734271500779 0  1.398058673633662 2.147688933973308 0  0.8545605983512565 0.6343835319818829 0  1.072584152252426 2.853228937916825 0  0.8462674517070675 4.851971641280215 0  1.853403041422536 2.15097879283758 0  0.3930760976266651 3.836742518240063 0  0.1459746256495623 1.094533214558924 0  0.1449604950589468 3.41641374300675 0  0.360147239891959 1.507070948822289 0  0.1371791188132176 3.14627243933882 0  0.1373781948221472 1.948699496915061 0  0.8787091687571863 2.813528399808599 0  0.640346663916172 3.202454813230568 0  0.1447898426935465 4.687821488540191 0  1.681222862898315 2.858606263227755 0  0.6057151088165942 1.858748550906064 0  0.6959087423316198 1.05023956637574 0  0.6929156491439609 0.8504350871602226 0  0.3804448021156934 2.991689533004409 0  0.4069998378428982 3.136829475620725 0  0.6221516319980132 1.461574324140038 0  0.8595221684437686 4.671970471025065 0  1.655041305862432 2.135199824735708 0  0.8397218722524009 3.992237826182404 0  0.6648391028671355 4.465773104071535 0  1.462522756387578 2.335702451268775 0  1.107872485384334 2.648667416202137 0  0.6412014890654342 0.5971222632485688 0  0.8285592833177335 2.286311487886619 0  0.4769010664620999 2.574488224117733 0  0.3384926303571551 0.445684366822149 0  0.622529668465069 4.711696333659297 0  1.70347020696268 2.379656531207025 0  0.673413754958227 2.634174081826437 0  0.8424185362726981 3.41410212582428 0  0.1496314029302428 1.699903720635713 0  0.6712113209446312 2.961657242108266 0  0.1318402597280083 0.83835
[...]
<PointData  Vectors="f_15"> 
<DataArray  type="Float64"  Name="f_15"  NumberOfComponents="3" format="ascii">-1.9719255469255185e-07 5.0061694032178629e-07 0.0000000000000000e+00  2.3604683609949644e-07 1.7558990745163964e-07 0.0000000000000000e+00  4.9158229416992182e-07 -6.6923095509847207e-08 0.0000000000000000e+00  -3.0440441512117647e-08 -3.1887575759791996e-08 0.0000000000000000e+00  1.3960006759627456e-08 -2.1912346559764204e-08 0.0000000000000000e+00  -3.7410293965296353e-07 2.1953566395586706e-07 0.0000000000000000e+00  4.6754527338057714e-08 3.1633190873502424e-07 0.0000000000000000e+00  2.1666876249648596e-07 1.5758840284498032e-07 0.0000000000000000e+00  8.3733039768166075e-05 1.7079977438093880e-02 0.0000000000000000e+00  2.6285910088846962e-05 1.7988719080847912e-02 0.0000000000000000e+00  2.2696678472949122e-05 1.8114734356661118e-02 0.0000000000000000e+00  9.0712317840982386e-06 1.8142469771241211e-02 0.0000000000000000e+00  3.3610954944997497e-06 1.8154789810865934e-02 0.0000000000000000e+00  -4.9287378885454938e-07 1.8151104771736905e-02 0.0000000000000000e+00  -1.2419355275747795e-05 1.8136784037963583e-02 0.0000000000000000e+00  -1.6566456284420458e-05 1.8028765638911957e-02 0.0000000000000000e+00  -8.7407506248484728e-05 1.7132410168550761e-02 0.0000000000000000e+00  3.3511308772108276e-07 2.1575587016310627e-07 0.0000000000000000e+00  1.4158583169861653e-07 -3.7281253523304703e-07 0.0000000000000000e+00  1.9871770307397163e-07 -2.7391960906185820e-07 0.0000000000000000e+00  -1.5293205136252683e-08 3.0100679897120676e-07 0.0000000000000000e+00  -2.4201512600536907e-08 -5.1649135123610495e-07 0.0000000000000000e+00  -7.8889451281081737e-08 -9.8491463153792004e-08 0.0000000000000000e+00  -8.0369391264509727e-08 7.5310722628836918e-08 0.0000000000000000e+00  -4.5792296153186854e-08 -2.1889415547964996e-07 0.0000000000000000e+00  -1.3505844902819908e-07 -2.3272337171000788e-08 0.0000000000000000e+00  3.0873712930756393e-08 1.0426602075706109e-07 0.0000000000000000e+00  1.1061265591811950e-07 -3.3666722964123053e-09 0.0000000000000000e+00  9.7484343482748576e-08 -4.2446171082252610e-08 0.0000000000000000e+00  9.0186669611296865e-08 6.6085114570949006e-08 0.0000000000000000e+00  1.1797752627116026e-07 -2.0690995911343719e-07 0.0000000000000000e+00  6.2016533654183668e-08 -2.2065133334842263e-07 0.0000000000000000e+00  -4.7579914026877287e-08 -4.4612286487283504e-08 0.0000000000000000e+00  -2.0263885812556033e-07 -2.0830296209790481e-07 0.0000000000000000e+00  -6.3693350591463452e-08 1.6600526712891431e-07 0.0000000000000000e+00  6.6800784587066917e-08 -1.1620846086011731e-07 0.0000000000000000e+00  2.0477645771562957e-07 -2.4007310845512986e-07 0.0000000000000000e+00  -3.3982013105396085e-07 -4.9169704351398177e-07 0.0000000000000000e+00  -9.4405093495876007e-08 -1.4734350030979339e-07 0.0000000000000000e+00  -1.4329168692822069e-07 -1.2285545348259996e-07 0.0000000000000000e+00  -9.1023241192953637e-08 -6.1404846950341569e-08 0.0000000000000000e+00  -5.6813179850327622e-08 -3.6477754800724490e-08 0.0000000000000000e+00  -4.3176585945892035e-08 -2.8096169642913171e-08 0.0000000000000000e+00  -4.6664524683277955e-08 -3.2298488546739140e-08 0.0000000000000000e+00  -1.4613414524058346e-08 -1.7035525636856828e-08 0.0000000000000000e+00  -3.6494891864101096e-09 -1.0780276753804706e-08 0.0000000000000000e+00  -1.9783962540019802e-08 -4.1609438193194907e-08 0.0000000000000000e+00  -6.4049169317097753e-09 -4.4737487691767499e-08 0.0000000000000000e+00  -1.8691980693678793e-09 -4.2442774825312514e-08 0.0000000000000000e+00  -4.6435443786186125e-10 -5.0958965725145719e-08 0.0000000000000000e+00  5.3711120238356460e-09 -4.4913783729039386e-08 0.0000000000000000e+00  2.1221093260617124e-09 -3.4581413272760458e-08 0.0000000000000000e+00  1.4542952698553655e-08 -4.4577394430321234e-08 0.0000000000000000e+00  1.5162165391530753e-08 -2.8123073104195382e-08 0.0000000000000000e+00  2.1539442205005601e-08 -2.4243332610963211e-08 0.0000000000000000e+00  4.3058895396054148e-08 -3.2926150373034205e-08 0.0000000000000000e+00  5.0865775187116783e-08 -3.6334092406203129e-08 0.0000000000000000e+00  4.8309833810921832e-08 -3.5020154483666488e-08 0.0000000000000000e+00  1.1235162477089404e-07 -6.3249860557167853e-08 0.0000000000000000e+00  1.0472676806980868e-07 -6.5848679846397153e-08 0.0000000000000000e+00  9.7489137680022641e-08 -1.4536610485479048e-07 0.0000000000000000e+00  2.3956583762326358e-07 -4.1776311242873278e-07 0.0000000000000000e+00  -3.6131734287442954e-07 1.0897775948927133e-07 0.0000000000000000e+00  1.3258954910918054e-07 2.7531631412509303e-07 0.0000000000000000e+00  1.7065910625106695e-07 -1.3335234419903908e-07 0.0000000000000000e+00  2.1725111034264009e-07 -1.5938994433792057e-07 0.0000000000000000e+00  -5.2257347278945463e-08 1.1125511585159572e-08 0.0000000000000000e+00  8.1738921379925636e-08 -1.1890554408392893e-07 0.0000000000000000e+00  8.0670163549380331e-08 -7.0112593960269202e-08 0.0000000000000000e+00  2.2000393854084323e-08 -8.5027908312465209e-08 0.0000000000000000e+00  -2.9483753733041449e-08 3.4373340989769330e-08 0.0000000000000000e+00  -8.3962683480319493e-08 9.0097178338499485e-08 0.0000000000000000e+00  9.7180385433023711e-08 -2.4190985810471428e-07 0.0000000000000000e+00  -1.0691066272956078e-07 4.4794453750430613e-08 0.0000000000000000e+00  5.0521789809427738e-08 -8.2727476832221070e-08 0.0000000000000000e+00  -3.3839961042819694e-08 1.6706976872145050e-08 0.0000000000000000e+00  1.3218073262073305e-07 4.0713061756253658e-08 0.0000000000000000e+00  -9.7481294222225108e-08 -9.1672815614774469e-08 0.0000000000000000e+00  5.1139221976249795e-08 -2.0688268518254434e-07 0.0000000000000000e+00  -1.0818827289098984e-07 -1.0450193767536489e-07 0.0000000000000000e+00  4.3695251211620772e-08 -2.0661000556988362e-07 0.0000000000000000e+00  -8.5685164598470787e-08 7.4970033486969197e-08 0.0000000000000000e+00  -2.1935723524761563e-05 1.7376989765068223e-02 0.0000000000000000e+00  -1.3859851341162721e-05 1.8099137180247301e-02 0.0000000000000000e+00  -7.9958001839335422e-06 1.8137362544517720e-02 0.0000000000000000e+00  -4.0218691721215890e-06 1.8153754572449787e-02 0.0000000000000000e+00  -7.1511631929015570e-06 1.8151656156000142e-02 0.0000000000000000e+00  -1.1081688598041644e-05 1.8138029039495331e-02 0.0000000000000000e+00  -2.3175674177033302e-05 1.8107386395104997e-02 0.0000000000000000e+00  -2.8849904231537639e-05 1.7983573446001575e-02 0.0000000000000000e+00  -6.9256545936110286e-05 1.7146696786668490e-02 0.0000000000000000e+00  3.4414493491715178e-07 2.0416466754942955e-08 0.0000000000000000e+00  2.0988978386065751e-07 -1.6908436633870257e-07 0.0000000000000000e+00  1.8949763251126166e-07 3.1680796449677145e-08 0.0000000000000000e+00  1.2246567117246039e-07 -1.0687455991215710e-07 0.0000000000000000e+00  -6.9868369540674846e-09 -2.1274148421256334e-07 0.0000000000000000e+00  -4.5868738496106530e-08 -2.4841929302115404e-07 0.0000000000000000e+00  -3.8012316217959297e-08 2.6841980029733131e-07 0.0000000000000000e+00  -1.3508509897213543e-08 -1.6285155555637154e-07 0.0000000000000000e+00  2.6891365113660287e-08 8.2775931592748429e-08 0.0000000000000000e+00  -1.2322284108710781e-07 -6.2973854317855934e-08 0.0000000000000000e+00  1.4771907914336760e-07 -4.7016311484211591e-08 0.0000000000000000e+00  4.7271833331758069e-09 -9.6006534384160568e-08 0.0000000000000000e+00  -3.3929105595903146e-08 -1.5018387650960341e-08 0.0000000000000000e+00  -2.2313608000280574e-07 1.5451507193603874e-07 0.0000000000000000e+00  -1.1889341766781053e-08 1.0953547773672196e-07 0.0000000000000000e+00  2.0000112348803644e-07 9.8454806745501280e-08 0.0000000000000000e+00  8.7589297813335611e-09 -1.1374079361875144e-07 0.0000000000000000e+00  5.1653083491447288e-08 -4.3765426883138367e-08 0.0000000000000000e+00  -1.0989987387744921e-07 -3.4011707190508268e-08 0.0000000000000000e+00  2.4942735924181478e-08 -1.4677011391446537e-07 0.0000000000000000e+00  -1.0667148322233460e-07 7.5041972818957745e-08 0.0000000000000000e+00  -2.4378807512072131e-08 -2.5044630983886451e-08 0.0000000000000000e+00  2.5415043469722095e-08 -3.9194508454334249e-08 0.0000000000000000e+00  -3.5365615042936438e-08 -2.0341948897971801e-07 0.0000000000000000e+00  -2.9682790026339668e-08 8.1097544791949273e-08 0.0000000000000000e+00  -2.8974774024650770e-09 8.9625597063032055e-08 0.0000000000000000e+00  9.9094793374921418e-08 -7.9863393226834948e-08 0.0000000000000000e+00  9.6710157742141718e-08 -7.7726486681051607e-08 0.0000000000000000e+00  -2.3432109374413215e-08 -1.9364764279924966e-08 0.0000000000000000e+00  9.5351713814682427e-08 1.7544656458280078e-07 0.0000000000000000e+00  1.6947808270917091e-08 -8.3223125211765801e-08 0.0000000000000000e+00  2.6909843043053663e-08 2.7293290949818402e-08 0.0000000000000000e+00  -8.0112975035808119e-08 -2.2857971039552553e-08 0.0000000000000000e+00  -1.3382712107399783e-08 2.9946482150176808e-08 0.0000000000000000e+00  -4.6605888183145640e-08 7.2642019855102007e-08 0.0000000000000000e+00  -5.2928962933932266e-08 -2.7979887616355539e-07 0.0000000000000000e+00  6.8347334985315500e-08 -1.0431581453266427e-07 0.0000000000000000e+00  5.8124487237160599e-09 -1.9926640817465719e-07 0.0000000000000000e+00  6.3692087208500876e-09 3.6504228337010137e-08 0.0000000000000000e+00  -1.2073938778790370e-07 -1.2011794240888312e-07 0.0000000000000000e+00  7.4433693524406358e-08 -1.3993853159742217e-07 0.0000000000000000e+00  5.5542314931871777e-08 7.2284078162406371e-08 0.0000000000000000e+00  1.6401598549377193e-07 1.0743345047513214e-09 0.0000000000000000e+00  -9.5199263576083369e-09 -5.4439167152134475e-08 0.0000000000000000e+00  -1.2050718025721002e-07 -2.4899344471783290e-09 0.0000000000000000e+00  -1.9830029357075031e-07 -5.0002994108412706e-08 0.0000000000000000e+00  -1.3787312845884126e-07 -1.6931065955207991e-07 0.0000000000000000e+00  -1.9376474549064150e-07 -5.2508279485816287e-07 0.0000000000000000e+00  -2.3666520979353585e-07 1.0821625273201832e-07 0.0000000000000000e+00  5.2921320023613312e-05 1.4493191400031347e-02 0.0000000000000000e+00  3.1531501626785235e-05 1.8181171717378142e-02 0.0000000000000000e+00  -9.6079818756975412e-04 1.7790640972453094e-02 0.0000000000000000e+00  -5.6797182040424759e-05 1.8182119295691284e-02 0.0000000000000000e+00  -1.5901455207818999e-04 6.8101936996686199e-03 0.0000000000000000e+00  1.3924977943912103e-03 1.7055169415101226e-02 0.0000000000000000e+00  2.8279603881373747e-04 1.8121460071511719e-02 0.0000000000000000e+00  -2.7082226863795540e-04 1.8131832254401434e-02 0.0000000000000000e+00  -2.0337936382784220e-05 1.8186594356705030e-02 0.0000000000000000e+00  4.4601437713050874e-04 2.0114144848054653e-03 0.0000000000000000e+00  -1.0358071008869912e-03 1.6210449954436545e-02 0.0000000000000000e+00  8.1193331354438306e-05 1.8170519095449051e-02 0.0000000000000000e+00  5.6775672615137416e-04 1.5963485810723946e-02 0.0000000000000000e+00  5.4136369977057189e-04 1.7670341730622770e-02 0.0000000000000000e+00  9.2980715842924493e-04 1.8410148239272058e-02 0.0000000000000000e+00  2.8286180250022158e-03 1.5330185251219687e-02 0.0000000000000000e+00  -2.8947465013168098e-03 1.5087316298883954e-02 0.0000000000000000e+00  3.1090707155738259e-05 1.8103688843641139e-02 0.0000000000000000e+00  -1.9774375257955488e-05 1.8144757832189360e-02 0.0000000000000000e+00  -1.6768276461886244e-03 2.8159234321690255e-03 0.0000000000000000e+00  -1.0516756984422026e-04 1.8235568276244181e-02 0.0000000000000000e+00  -4.8979377541100155e-04 1.8373556724443699e-02 0.0000000000000000e+00  3.5472343380584135e-05 1.8136005582947406e-02 0.0000000000000000e+00  -4.0959063350698843e-06 1.8155392598530991e-02 0.0000000000000000e+00  1.1010960138694338e-04 1.8056244830925793e-02 0.0000000000000000e+00  -1.1884474397524587e-04 1.5821409509752676e-02 0.0000000000000000e+00  -6.6361219842950053e-04 1.2578339683178533e-03 0.0000000000000000e+00  -4.4620092439826528e-05 1.8135782661838466e-02 0.0000000000000000e+00  -8.8602464235512882e-05 1.8069188235511551e-02 0.0000000000000000e+00  -3.4899782145555926e-04 1.7765452324319961e-02 0.0000000000000000e+00  -2.8765947786390684e-05 1.8170551713144568e-02 0.0000000000000000e+00  2.4526803985439340e-03 3.5876165782931920e-03 0.0000000000000000e+00  -2.3807644562015631e-03 1.8089708060648746e-02 0.0000000000000000e+00  1.2198541339438844e-03 1.1522652937676719e-02 0.0000000000000000e+00  -5.7930914135648594e-04 1.7108768602348823e-02 0.0000000000000000e+00  5.1190583677807932e-05 1.8153598454336221e-02 0.0000000000000000e+00  1.1876672066593363e-04 1.8240393681019304e-02 0.0000000000000000e+00  -3.7449589654866729e-03 1.0005906800459013e-02 0.0000000000000000e+00  5.8410782308699889e-04 1.6720694302548692e-02 0.0000000000000000e+00  2.0556283409158869e-04 1.7732977196253597e-02 0.0000000000000000e+00  2.4937977053020354e-03 1.8545281353049677e-02 0.0000000000000000e+00  6.0798722065229490e-06 1.8136328353641738e-02 0.0000000000000000e+00  6.3490765658020794e-04 9.7722802961658557e-04 0.0000000000000000e+00  2.0002775453056489e-05 1.7997954755131943e-02 0.0000000000000000e+00  5.4606688193328560e-03 7.9518115396210523e-03 0.0000000000000000e+00  2.8609356975988707e-04 1.8304401670760553e-02 0.0000000000000000e+00  -2.3207717060379281e-05 1.8014887378204579e-02 0.0000000000000000e+00  -1.3855680690512439e-04 1.7812211749018224e-02 0.0000000000000000e+00  -4.3016346280455783e-05 1.8111199297813699e-02 0.0000000000000000e+00  -2.1582654842830401e-04 1.8244859778775369e-02 0.0000000000000000e+00  -1.0847191510922423e-03 1.8676704809730115e-02 0.0000000000000000e+00  -1.6831434682639454e-05 1.8163884935204433e-02 0.0000000000000000e+00  -2.8563125846165382e-05 1.3254620413523611e-03 0.0000000000000000e+00  -4.5821811812681553e-03 5.0131591727223968e-03 0.0000000000000000e+00  9.8343398402731314e-06 1.7975932749556337e-02 0.0000000000000000e+00  1.5202725573369442e-03 1.4502035461191499e-03 0.0000000000000000e+00  2.7891164657852983e-05 1.8011060538312935e-02 0.0000000000000000e+00  -1.4560220321306111e-03 1.7036091093125934e-02 0.0000000000000000e+00  -2.9907276258488337e-04 1.5714589397971997e-02 0.0000000000000000e+00  3.9864526907759711e-04 1.7061694041704246e-02 0.0000000000000000e+00  1.1185423114239795e-05 1.8163992327239430e-02 0.0000000000000000e+00  -1.8768585889072683e-03 1.2439383018617106e-02 0.0000000000000000e+00  -1.2385406113316103e-03 1.5130895711843291e-02 0.0000000000000000e+00  1.4246090872261819e-04 1.8153780247239792e-02 0.0000000000000000e+00  4.9499641475093741e-05 1.8167115959738189e-02 0.0000000000000000e+00  1.5775255915206582e-03 1.6138916302908275e-02 0.0000000000000000e+00  8.7839427873231932e-05 1.8083323959196970e-02 0.0000000000000000e+00  -3.2758322609384770e-05 1.8191172931886521e-02 0.0000000000000000e+00  1.8185928435851453e-04 4.0541126366845223e-03 0.0000000000000000e+00  -1.0841451934496174e-04 1.8177669010549832e-02 0.0000000000000000e+00  -5.7434423082226046e-04 1.8038094275687977e-02 0.0000000000000000e+00  -3.5482337528780380e-04 1.7218926154613099e-02 0.0000000000000000e+00  1.3546209857322688e-04 1.5928627355137056e-02 0.0000000000000000e+00  9.2988714928398752e-04 1.7828627216516700e-02 0.0000000000000000e+00  6.0183355168870239e-04 1.8064953273700959e-02 0.0000000000000000e+00  2.9139516910881008e-05 1.7625625954839168e-02 0.0000000000000000e+00  -4.9620049411152459e-05 1.7370805824939297e-02 0.0000000000000000e+00  -1.7514701467058447e-03 1.2491997001180374e-03 0.0000000000000000e+00  2.1384909691885454e-04 1.5453167992906967e-02 0.0000000000000000e+00  5.8326886876652545e-03 1.3296331983972461e-02 0.0000000000000000e+00  7.1585032685302842e-05 1.7117123922390415e-02 0.0000000000000000e+00  2.6781586154013461e-04 1.5728896774203794e-02 0.0000000000000000e+00  7.9250791926510969e-05 1.8128891410572234e-02 0.0000000000000000e+00  1.1166686147907464e-03 1.4989956868289477e-02 0.0000000000000000e+00  6.3987215305995576e-05 1.7473488872400699e-02 0.0000000000000000e+00  -5.7165027557369485e-05 1.7315688687425074e-02 0.0000000000000000e+00  -2.9782217716019038e-04 1.5888521466999043e-02 0.0000000000000000e+00  2.5015423705928587e-04 1.7012370337704544e-02 0.0000000000000000e+00  -4.8109173582704400e-04 6.0222557825753025e-04 0.0000000000000000e+00  -9.1680184992835154e-05 1.7337921723185098e-02 0.0000000000000000e+00  1.2199476805815736e-03 1.8371197586816775e-02 0.0000000000000000e+00  -3.1801902381922450e-05 1.8184328939380559e-02 0.0000000000000000e+00  -6.2557645961344851e-04 2.0886746117492884e-03 0.0000000000000000e+00  -5.3238038197041615e-03 1.6628189460809559e-02 0.0000000000000000e+00  2.4757180033015162e-03 1.6939951937882464e-02 0.0000000000000000e+00  -7.5903130812981969e-04 9.7421518125065682e-03 0.0000000000000000e+00  2.3057961373337193e-05 1.8177919839125693e-02 0.0000000000000000e+00  -4.3592551014010514e-05 1.7306615397409134e-02 0.0000000000000000e+00  -1.7477343799301519e-03 1.6182324076945157e-02 0.0000000000000000e+00  -2.9787753639915377e-04 1.8289100430926238e-02 0.0000000000000000e+00  5.5657830463413152e-05 1.7283088018104503e-02 0.0000000000000000e+00  -1.0902225366476568e-04 1.7042717491422627e-02 0.0000000000000000e+00  2.0583141655134313e-04 1.8000339990551156e-02 0.0000000000000000e+00  3.9511498884841744e-05 1.6978868664885283e-02 0.0000000000000000e+00  -4.8998091133866513e-05 1.7032801444260993e-02 0.0000000000000000e+00  -2.1408084427465985e-04 1.7129895223885611e-02 0.0000000000000000e+00  5.0445948950588234e-03 3.6106862579511783e-03 0.0000000000000000e+00  4.6181433710973049e-04 1.7911327337522497e-02 0.0000000000000000e+00  -3.2679476261896706e-03 2.0328638684149864e-03 0.0000000000000000e+00  7.7442716777752663e-04 1.7336634168950423e-02 0.0000000000000000e+00  2.4254525898698547e-05 1.8158602937372492e-02 0.0000000000000000e+00  4.8923409680724896e-03 1.6789142502585987e-02 0.0000000000000000e+00  -1.6291793130464498e-03 4.9161657224542328e-03 0.0000000000000000e+00  -8.9240884158332682e-04 1.8223587216600303e-02 0.0000000000000000e+00  2.6491439731055548e-05 1.8127118409039727e-02 0.0000000000000000e+00  -3.5690132646084897e-05 1.6999588601789416e-02 0.0000000000000000e+00  -9.9576224989795651e-06 1.8144826304060491e-02 0.0000000000000000e+00  -1.1990195238652892e-05 1.6953791972940797e-02 0.0000000000000000e+00  -7.0379626273925106e-05 1.8207923711084775e-02 0.0000000000000000e+00  2.5978627555483444e-05 1.8191265757996677e-02 0.0000000000000000e+00  -3.0223239806358234e-05 1.8159734821076311e-02 0.0000000000000000e+00  -3.3611273535392403e-05 1.8124742765930266e-02 0.0000000000000000e+00  -2.0432982230274050e-04 9.6733063002010919e-04 0.0000000000000000e+00  -5.9376705021494574e-04 1.7651921672571392e-02 0.0000000000000000e+00  -5.5672299436629639e-04 1.5850891974805239e-02 0.0000000000000000e+00  -8.8199427647365870e-05 1.6755159423757320e-02 0.0000000000000000e+00  8.2570173932067483e-05 1.7547455716143346e-02 0.0000000000000000e+00  -2.5855351154771028e-05 1.7001596519672167e-02 0.0000000000000000e+00  -2.6138207886163147e-04 1.7939868814501863e-02 0.0000000000000000e+00  -1.8733900860264316e-04 1.8225641758736189e-02 0.0000000000000000e+00  -6.1057084513429832e-05 1.8140438527708625e-02 0.0000000000000000e+00  -8.4038826099014903e-05 1.5236710194120946e-02 0.0000000000000000e+00  2.6493364732739869e-05 1.7474648457280847e-02 0.0000000000000000e+00  7.5234046478682697e-05 1.7255433837244722e-02 0.0000000000000000e+00  2.3952375718554386e-03 5.8931889059086265e-03 0.0000000000000000e+00  1.1575548223222471e-03 1.3588891453168451e-02 0.0000000000000000e+00  2.4494817350824866e-04 1.8274736272887355e-02 0.0000000000000000e+00  -2.5063992272549837e-06 1.8136951186393750e-02 0.0000000000000000e+00  2.0541821333642442e-04 9.6945481885595832e-04 0.0000000000000000e+00  1.8145515208713527e-03 8.6756243542146557e-03 0.0000000000000000e+00  -1.8322978028661857e-03 1.7944455677795089e-02 0.00000000000000