<?xml version="1.0"?>
<VTKFile type="UnstructuredGrid"  version="0.1"  >
<UnstructuredGrid>
<Piece  NumberOfPoints="853" NumberOfCells="1564">
<Points>
<DataArray  type="Float64"  NumberOfComponents="3"  format="ascii">0 0 0  1 0 0  1 2 0  2 2 0  2 3 0  1 3 0  1 5 0  0 5 0  0.09999999999981467 0 0  0.1999999999995579 0 0  0.2999999999992664 0 0  0.3999999999989749 0 0  0.4999999999986943 0 0  0.5999999999989468 0 0  0.69999999999921 0 0  0.7999999999994734 0 0  0.8999999999997368 0 0  1 0.0999999999997993 0  1 0.1999999999996293 0  1 0.2999999999994072 0  1 0.3999999999991157 0  1 0.4999999999988242 0  1 0.5999999999985328 0  1 0.6999999999982413 0  1 0.7999999999979498 0  1 0.8999999999976585 0  1 0.9999999999973885 0  1 1.09999999999763 0  1 1.199999999997894 0  1 1.299999999998157 0  1 1.39999999999842 0  1 1.499999999998683 0  1 1.599999999998947 0  1 1.69999999999921 0  1 1.799999999999474 0  1 1.899999999999737 0  1.1 2 0  1.2 2 0  1.3 2 0  1.4 2 0  1.5 2 0  1.6 2 0  1.7 2 0  1.8 2 0  1.9 2 0  2 2.1 0  2 2.2 0  2 2.299999999999999 0  2 2.399999999999999 0  2 2.5 0  2 2.6 0  2 2.7 0  2 2.8 0  2 2.9 0  1.9 3 0  1.8 3 0  1.7 3 0  1.6 3 0  1.5 3 0  1.4 3 0  1.3 3 0  1.2 3 0  1.1 3 0  1 3.1 0  1 3.2 0  1 3.299999999999999 0  1 3.399999999999999 0  1 3.499999999999999 0  1 3.599999999999999 0  1 3.699999999999999 0  1 3.799999999999999 0  1 3.899999999999999 0  1 4 0  1 4.1 0  1 4.199999999999999 0  1 4.3 0  1 4.399999999999999 0  1 4.5 0  1 4.6 0  1 4.699999999999999 0  1 4.8 0  1 4.899999999999999 0  0.8999999999995836 5 0  0.7999999999999998 5 0  0.7000000000006934 5 0  0.6000000000013869 5 0  0.5000000000020587 5 0  0.4000000000016644 5 0  0.3000000000012483 5 0  0.2000000000008322 5 0  0.100000000000416 5 0  0 4.899999999999999 0  0 4.8 0  0 4.699999999999999 0  0 4.6 0  0 4.499999999999999 0  0 4.399999999999999 0  0 4.299999999999999 0  0 4.199999999999998 0  0 4.099999999999999 0  0 3.999999999999999 0  0 3.899999999999999 0  0 3.799999999999999 0  0 3.699999999999998 0  0 3.599999999999999 0  0 3.499999999999999 0  0 3.399999999999999 0  0 3.299999999999999 0  0 3.199999999999998 0  0 3.099999999999999 0  0 2.999999999999999 0  0 2.899999999999999 0  0 2.799999999999999 0  0 2.699999999999999 0  0 2.599999999999999 0  0 2.5 0  0 2.399999999999999 0  0 2.299999999999999 0  0 2.199999999999999 0  0 2.1 0  0 2 0  0 1.899999999999999 0  0 1.799999999999999 0  0 1.699999999999999 0  0 1.599999999999999 0  0 1.5 0  0 1.399999999999999 0  0 1.299999999999999 0  0 1.199999999999999 0  0 1.1 0  0 0.9999999999999991 0  0 0.8999999999999995 0  0 0.7999999999999998 0  0 0.7000000000000002 0  0 0.5999999999999996 0  0 0.4999999999999991 0  0 0.3999999999999995 0  0 0.3000000000000007 0  0 0.1999999999999993 0  0 0.09999999999999964 0  0.6166569079913358 2.492277433160826 0  0.496804750005887 0.5479593764091243 0  0.5000000000000001 3.249999999999996 0  0.5010746240977132 4.146233959879961 0  1.15284373704454 2.508044505059064 0  0.5115316434189965 1.955545969082757 0  0.4999999999999211 1.349999999999999 0  0.4689171957673295 3.679717700049328 0  0.5612906571832685 4.583387229041095 0  1.571380248656294 2.43209333797878 0  0.4137140166874343 2.842788829011612 0  0.5924999999992734 0.9499999999993549 0  0.3530983922827606 2.277151253345766 0  0.3374999999999892 1.65000000000002 0  0.6755701284515059 1.666012036452857 0  0.7199661008857956 2.178412873198308 0  0.7334525640603837 2.809285576954712 0  0.3169326937911943 0.8062495868452884 0  0.3138857644565878 4.404201202807377 0  1.409460640835247 2.684430832001214 0  0.6887829815303428 3.902565963060691 0  0.6887829815303437 3.49743403693931 0  0.3083333333329294 0.3083333333329091 0  0.6836117544982274 0.312527457707179 0  0.3168915343039068 1.103810255435239 0  0.3022648077978692 2.555831328112146 0  1.699661159477641 2.699661159477642 0  0.3119190378227792 4.685290485878375 0  0.2857741186203023 3.950276087647296 0  0.2901796187683303 3.455359237536657 0  0.7185169821104359 4.329943392965225 0  1.329943392965171 2.281483017889551 0  0.723334373514972 3.086114578383237 0  0.8872939267661155 2.418951697643693 0  0.2683606383900753 3.107323129784811 0  0.7213259925957727 0.709299358069827 0  0.7248933848217622 1.191311282739447 0  0.9946254212153881 2.725887626364616 0  0.2534599397489012 2.044779020535383 0  0.2472238456272076 1.409843650950396 0  0.7466779594322671 1.891779594322711 0  0.751445254703026 4.751445254703024 0  1.751445254703023 2.248554745296977 0  0.2308928978487501 0.5537472873885254 0  1.08084306636788 2.246658930824796 0  0.7618726449950816 1.428238687173948 0  0.2386599654867296 4.176198813049547 0  0.2277655772754102 3.726664793307169 0  0.7721651484755335 4.113350253753182 0  0.7651749878558429 3.697580220958253 0  0.7656850901336474 3.299617602969102 0  0.4980799523915615 4.792356177625049 0  1.776143433203817 2.501327251062086 0  1.208880242020366 2.780272536786154 0  0.7911996774911533 4.53781383416655 0  1.542032468257247 2.216473886475725 0  0.7821379364211358 0.4969347839607502 0  0.5159796121199893 3.035942476666499 0  0.1994782516945909 2.77487521870957 0  0.2121527327795772 1.820534480974185 0  0.4961068761097068 0.2091473007262267 0  0.8212076849290986 2.630353036209751 0  0.5799159337228276 2.696151511257179 0  0.521656415787208 1.134485020795658 0  0.5198027681168929 0.7515845938922632 0  0.5314469083329 2.149920708093939 0  0.8022340879252141 0.949830582795168 0  0.5153738125904214 4.366355293244797 0  1.369864008384514 2.483509168319498 0  0.493575298272567 3.951867463619321 0  0.4920800561363075 3.451776843677214 0  0.1993224400966551 3.276384038573164 0  0.2040352237160636 2.400557997609325 0  0.504974575031962 1.751372233424674 0  0.499694528062418 1.552255000835086 0  0.1883367598055906 0.9438245084748886 0  0.1955706745794366 4.52834806507854 0  1.537127505356749 2.822707438948337 0  0.4347408457716787 2.442047619826679 0  0.9025073455677252 2.163749048054409 0  0.1773846193758333 1.247310083483254 0  0.1790840974615431 2.196648468506937 0  0.4241221003595179 0.9580937949419669 0  0.5742095764754795 2.324790710904777 0  0.1810593287337392 0.1648759332410678 0  0.830532350559559 0.1714616318750705 0  0.1799849931748815 2.936783687129475 0  0.1700601135178742 1.60121319242071 0  1.834470454079937 2.829637832875926 0  0.1703621671240551 4.83447045408015 0  0.829990552477618 1.736728469669415 0  0.3976185944449355 4.553236496558402 0  1.555161286389273 2.597039871453049 0  0.8411335884160621 2.955436961449523 0  0.6558334436081007 2.021696625357631 0  0.9866801805488914 2.554042320868289 0  0.4842405954457978 0.3674248026875673 0  0.1764810578689407 0.6996979327130011 0  0.5695354616787965 2.867647040045057 0  0.627187487409925 3.659501677082119 0  0.1696270647651137 0.3969694240763386 0  0.1588761645418826 3.579667620980887 0  0.3504882684591691 1.27320675399182 0  0.1613150679413317 4.323270191935268 0  0.8439697987258331 3.850137374173121 0  0.8582592809978382 3.556895103851285 0  1.2205291243602 2.169320339907971 0  0.8274853269315643 1.578104600362255 0  1.35480687481049 2.843927765640049 0  0.3677577894563876 1.843336837909973 0  0.3739468553634951 0.650971017289567 0  0.8175350952416559 2.032763453059245 0  1.255052217924463 2.621284633706947 0  0.6275139014702615 3.348445849128012 0  0.3500097682353719 0.1540209779916574 0  0.8470720720723232 0.3499999999992615 0  0.6516218900422024 0.1543745010121346 0  0.1570362925186822 4.034940931583384 0  0.6259846398323782 4.050387381032598 0  0.6243837498547334 0.4550390732635957 0  0.3764337664925781 4.252429701173535 0  0.3638240662285239 4.845889022715784 0  1.841058165929382 2.650192415774816 0  0.3538129642253492 3.310506091581767 0  0.3972635403128369 2.692091228217206 0  0.1493546974812203 3.864275696990799 0  0.8353411562925317 1.295894841996498 0  0.8510640038578493 4.24376876336904 0  0.3274183905250344 3.60709353923235 0  0.5690599951287177 3.803379429947107 0  0.3608465922823166 4.079737353610348 0  0.1464953658605303 2.61946161625165 0  0.8522365706696342 1.101349250004825 0  0.8462743532452005 0.8012074197151465 0  1.200278576701711 2.350961992006298 0  0.7326508832134601 2.394973662719556 0  0.6648495127067672 1.330201720826574 0  0.6421476239135478 4.851671120026346 0  1.851998954991891 2.359839578227697 0  1.041233083983184 2.39820467647697 0  0.8526824909154477 3.164884108363255 0  0.3803758752537028 2.126429281492964 0  0.6420376057736918 4.200165882518018 0  0.8501088759525246 4.401734271500779 0  1.398058673633662 2.147688933973308 0  0.8545605983512565 0.6343835319818829 0  1.072584152252426 2.853228937916825 0  0.8462674517070675 4.851971641280215 0  1.853403041422536 2.15097879283758 0  0.3930760976266651 3.836742518240063 0  0.1459746256495623 1.094533214558924 0  0.1449604950589468 3.41641374300675 0  0.360147239891959 1.507070948822289 0  0.1371791188132176 3.14627243933882 0  0.1373781948221472 1.948699496915061 0  0.8787091687571863 2.813528399808599 0  0.640346663916172 3.202454813230568 0  0.1447898426935465 4.687821488540191 0  1.681222862898315 2.858606263227755 0  0.6057151088165942 1.858748550906064 0  0.6959087423316198 1.05023956637574 0  0.6929156491439609 0.8504350871602226 0  0.3804448021156934 2.991689533004409 0  0.4069998378428982 3.136829475620725 0  0.6221516319980132 1.461574324140038 0  0.8595221684437686 4.671970471025065 0  1.655041305862432 2.135199824735708 0  0.8397218722524009 3.992237826182404 0  0.6648391028671355 4.465773104071535 0  1.462522756387578 2.335702451268775 0  1.107872485384334 2.648667416202137 0  0.6412014890654342 0.5971222632485688 0  0.8285592833177335 2.286311487886619 0  0.4769010664620999 2.574488224117733 0  0.3384926303571551 0.445684366822149 0  0.622529668465069 4.711696333659297 0  1.70347020696268 2.379656531207025 0  0.673413754958227 2.634174081826437 0  0.8424185362726981 3.41410212582428 0  0.1496314029302428 1.699903720635713 0  0.6712113209446312 2.961657242108266 0  0.1318402597280083 0.83835
[...]
<PointData  Vectors="f_15"> 
<DataArray  type="Float64"  Name="f_15"  NumberOfComponents="3" format="ascii">-4.6602187407267556e-06 8.5773973444284521e-06 0.0000000000000000e+00  6.8094571467134914e-06 8.7249268742096415e-06 0.0000000000000000e+00  -5.6909828139613236e-06 -6.4686707795446714e-06 0.0000000000000000e+00  2.2323805522740486e-07 1.8695080392616829e-07 0.0000000000000000e+00  -2.2708838633733331e-07 1.6876581754620720e-07 0.0000000000000000e+00  6.8247340191407861e-06 -6.2465661587131525e-06 0.0000000000000000e+00  2.3718838341838012e-06 -1.0164596428006412e-06 0.0000000000000000e+00  4.7806632008530428e-06 7.2970714670705264e-06 0.0000000000000000e+00  3.5489169497148398e-05 6.1908649187294206e-03 0.0000000000000000e+00  1.1102473707692145e-05 6.5353792207123685e-03 0.0000000000000000e+00  9.3211203009775242e-06 6.5854102511115169e-03 0.0000000000000000e+00  3.6223500653327813e-06 6.5963119280802035e-03 0.0000000000000000e+00  1.2925579578641705e-06 6.6009649189095283e-03 0.0000000000000000e+00  -3.6894047448105605e-07 6.5999601339913000e-03 0.0000000000000000e+00  -5.4773519557082396e-06 6.5937530491778085e-03 0.0000000000000000e+00  -7.2618668896817399e-06 6.5504656152438672e-03 0.0000000000000000e+00  -3.6146170257161935e-05 6.2116927122844497e-03 0.0000000000000000e+00  8.5855385567597334e-06 3.2432634020522000e-06 0.0000000000000000e+00  4.2991792246114090e-06 -3.8728403045311152e-06 0.0000000000000000e+00  4.8514473160002693e-06 8.3366812560551987e-07 0.0000000000000000e+00  -1.1313343816428948e-06 -1.3189649105171991e-06 0.0000000000000000e+00  -3.0682468817137852e-06 -3.9073194070284845e-06 0.0000000000000000e+00  -3.5946871602658426e-06 6.1048248413255311e-06 0.0000000000000000e+00  -2.2763554464087699e-06 1.8743116253059796e-06 0.0000000000000000e+00  -1.2093067796559382e-06 -3.8823189105156113e-06 0.0000000000000000e+00  -5.3238312430498289e-06 1.7319792519033923e-06 0.0000000000000000e+00  6.6295611192773801e-07 8.6122243557110840e-06 0.0000000000000000e+00  4.3424291417928718e-06 3.2326132714910324e-06 0.0000000000000000e+00  5.6665523107448199e-06 1.0534112633043913e-06 0.0000000000000000e+00  5.7096050343448802e-06 1.2765592985339483e-06 0.0000000000000000e+00  6.1894311972902909e-06 7.6914268028250899e-07 0.0000000000000000e+00  4.3842960835522138e-06 6.9447318009347410e-07 0.0000000000000000e+00  -2.4865335629874290e-07 -1.4255197107936850e-06 0.0000000000000000e+00  -1.8274554337401754e-06 1.5916544738352434e-06 0.0000000000000000e+00  1.0386543575651205e-05 1.5960250499473892e-05 0.0000000000000000e+00  -1.2275415986937244e-07 -7.4984691213201136e-06 0.0000000000000000e+00  1.9673929881048237e-06 1.3381800080716669e-05 0.0000000000000000e+00  8.4484214710453331e-06 1.2917876405371085e-05 0.0000000000000000e+00  5.6455753105276806e-06 7.2771047187222596e-06 0.0000000000000000e+00  3.9974795570226934e-06 2.9569146158597975e-06 0.0000000000000000e+00  1.9674426054426025e-06 1.8012575892454352e-06 0.0000000000000000e+00  1.1960631568777703e-06 1.0635357051714362e-06 0.0000000000000000e+00  9.6990020476976249e-07 8.2188132706118526e-07 0.0000000000000000e+00  2.6469229339168770e-07 3.3813827990461026e-07 0.0000000000000000e+00  3.1344640873107619e-07 4.0951468372658699e-07 0.0000000000000000e+00  4.0094536075454235e-07 1.7007087398256860e-07 0.0000000000000000e+00  2.2986026248118482e-07 -5.3611363991978618e-08 0.0000000000000000e+00  3.6732930106209874e-07 1.5138802452878786e-07 0.0000000000000000e+00  3.6594856308723883e-07 4.4642716744484307e-07 0.0000000000000000e+00  1.4658673938149548e-07 2.1432218094256602e-08 0.0000000000000000e+00  -1.4157491886583709e-07 1.0274592362745657e-07 0.0000000000000000e+00  -4.8993938804596647e-07 2.6863406718910601e-07 0.0000000000000000e+00  -2.7555430147450483e-07 3.1527214093972985e-09 0.0000000000000000e+00  -3.3332719539528018e-07 3.7884703375286013e-08 0.0000000000000000e+00  -3.3668455169851960e-07 3.3941560773883736e-07 0.0000000000000000e+00  -2.7801680896940365e-07 3.3658068790367173e-07 0.0000000000000000e+00  -7.0591871562031802e-07 5.8661001957176508e-07 0.0000000000000000e+00  -1.7542190824276716e-06 1.2928099974589914e-06 0.0000000000000000e+00  -2.3070336774656697e-06 2.1137882119952376e-06 0.0000000000000000e+00  -4.5225905145740273e-06 5.3505050303341465e-06 0.0000000000000000e+00  -5.3147310523705630e-06 8.5126949568883865e-06 0.0000000000000000e+00  -7.3985150122779829e-06 1.5540931695570538e-05 0.0000000000000000e+00  -4.5297840551301118e-07 1.2030459079742500e-05 0.0000000000000000e+00  -1.6857213769788394e-06 -8.2844054586050728e-06 0.0000000000000000e+00  -1.3648211768081886e-05 9.5013003195383123e-06 0.0000000000000000e+00  -4.1017153955115047e-06 2.7351604000193382e-06 0.0000000000000000e+00  -6.7614753629276728e-06 2.1886141774453887e-06 0.0000000000000000e+00  3.5000793278194965e-07 5.6167347967131174e-06 0.0000000000000000e+00  2.5122652880732026e-06 4.9727306020912590e-06 0.0000000000000000e+00  1.4307193101537806e-06 -3.2980290414584602e-06 0.0000000000000000e+00  -8.9603572804205718e-07 1.4877617148294587e-06 0.0000000000000000e+00  -2.9956731674972864e-06 2.9445491501232244e-06 0.0000000000000000e+00  1.4430483739258428e-06 -8.0926097665887297e-07 0.0000000000000000e+00  -4.1857679686889940e-06 2.2073611032684998e-07 0.0000000000000000e+00  8.3141998512169266e-07 3.7034133317895751e-06 0.0000000000000000e+00  1.3291521383966149e-06 3.2307096697589251e-06 0.0000000000000000e+00  5.1645224450667727e-06 -8.3116805795468463e-07 0.0000000000000000e+00  -3.3314369411284166e-06 -2.5095211048596781e-06 0.0000000000000000e+00  -1.5177369910342222e-06 7.4575655564011474e-07 0.0000000000000000e+00  -4.8966007074538233e-06 2.0713171742211817e-06 0.0000000000000000e+00  6.0351954133126630e-07 8.1825704492760759e-07 0.0000000000000000e+00  -1.9424400312919069e-06 4.0750068312946919e-06 0.0000000000000000e+00  -1.3890964837539039e-05 6.3222583228235187e-03 0.0000000000000000e+00  -4.4149462729329856e-06 6.5782843928622317e-03 0.0000000000000000e+00  -2.7222886564893446e-06 6.5935969891807184e-03 0.0000000000000000e+00  -1.5658823505427559e-06 6.6009672608858877e-03 0.0000000000000000e+00  -2.8387460085079589e-06 6.6002588282690223e-03 0.0000000000000000e+00  -4.4304512208474165e-06 6.5949297957848887e-03 0.0000000000000000e+00  -9.5443624927982400e-06 6.5832706974211005e-03 0.0000000000000000e+00  -1.2071931173005179e-05 6.5340527064804499e-03 0.0000000000000000e+00  -2.8452280486957568e-05 6.2175002768446591e-03 0.0000000000000000e+00  9.0569577304942213e-06 6.1706796040357738e-06 0.0000000000000000e+00  8.0823923966862617e-06 -1.6810107947953521e-06 0.0000000000000000e+00  8.3698549988041499e-06 -2.9729980882339749e-07 0.0000000000000000e+00  4.4294325509441800e-06 6.0727117875323394e-07 0.0000000000000000e+00  -1.2865414917285520e-06 -4.9677708767926135e-06 0.0000000000000000e+00  -2.9961661006645304e-06 -5.8910536089621281e-07 0.0000000000000000e+00  -2.8011427574204453e-06 6.6298628960166102e-06 0.0000000000000000e+00  -1.4269939539366738e-06 -1.6802414849376404e-06 0.0000000000000000e+00  -3.1961791329579873e-07 1.6054821202163717e-06 0.0000000000000000e+00  -2.9079474025782359e-06 2.5018619824311403e-06 0.0000000000000000e+00  4.5271532667234400e-06 3.0955984538467859e-06 0.0000000000000000e+00  2.9972187589792990e-07 -1.3931354865379422e-06 0.0000000000000000e+00  -1.8000051768976847e-06 -4.2730269663836799e-06 0.0000000000000000e+00  -7.0821636393619732e-06 3.0381988670674278e-06 0.0000000000000000e+00  -1.3480807536104313e-06 4.2937927971836430e-06 0.0000000000000000e+00  5.1356741060671448e-06 3.1848689993092637e-06 0.0000000000000000e+00  7.6460858100234835e-07 -3.1815866899256978e-06 0.0000000000000000e+00  1.9176099307294833e-06 5.8404115911083072e-07 0.0000000000000000e+00  -1.7190878637268672e-06 -3.6839868450310944e-07 0.0000000000000000e+00  -1.3800193533033442e-06 -5.6419369792016859e-06 0.0000000000000000e+00  -5.8737372056374104e-06 1.0559940741964054e-06 0.0000000000000000e+00  -3.3828081539717440e-06 3.6040422313892207e-06 0.0000000000000000e+00  4.4152631404796089e-08 1.2709790290568633e-06 0.0000000000000000e+00  -3.4631095457733247e-07 -8.5297897584056478e-07 0.0000000000000000e+00  -1.1862834683526176e-06 -1.0501584034630457e-07 0.0000000000000000e+00  1.2747139384213394e-06 2.6322363637661068e-06 0.0000000000000000e+00  6.2655714822460405e-06 2.8641579723027711e-06 0.0000000000000000e+00  4.9163901488761517e-06 -3.0098074425632253e-06 0.0000000000000000e+00  2.9894442002179708e-09 -3.2197235517586898e-06 0.0000000000000000e+00  2.7211066999934315e-06 4.6412760593068093e-06 0.0000000000000000e+00  2.4385231168606897e-06 -1.9392976956230473e-07 0.0000000000000000e+00  3.6075583097228035e-06 -2.9646806552440738e-06 0.0000000000000000e+00  6.3530153990686717e-08 1.2676116104987100e-06 0.0000000000000000e+00  -2.4494902829112526e-06 -3.6905319326554949e-06 0.0000000000000000e+00  -3.5250187136671758e-06 4.0934197895900516e-07 0.0000000000000000e+00  -7.4203148071001245e-07 7.8848812292532799e-06 0.0000000000000000e+00  4.3316315276905604e-06 4.4762431965109430e-06 0.0000000000000000e+00  2.7215277103896610e-06 -2.7420597952576834e-06 0.0000000000000000e+00  2.3372306334945571e-08 -1.2798471969057761e-06 0.0000000000000000e+00  -4.3775269578085364e-06 1.0128947937187146e-06 0.0000000000000000e+00  3.2956600270110843e-06 5.7193149702911908e-06 0.0000000000000000e+00  6.8133634313697857e-06 5.2090091896565410e-06 0.0000000000000000e+00  9.3424103972977507e-06 -5.8780858202215257e-07 0.0000000000000000e+00  7.6541338437450139e-07 -4.4485313903786995e-06 0.0000000000000000e+00  -5.0105789200764851e-06 -3.4291560316020583e-06 0.0000000000000000e+00  -8.3540109743895489e-06 3.2791994893178826e-06 0.0000000000000000e+00  -4.7095118340998846e-06 4.8916433245908287e-07 0.0000000000000000e+00  -4.9814536893835811e-06 -2.6556548958829656e-06 0.0000000000000000e+00  -4.7085899250605382e-06 1.0134743401646962e-06 0.0000000000000000e+00  1.9012546166714577e-05 5.2703687187071616e-03 0.0000000000000000e+00  1.1614604526449237e-05 6.6115209379924225e-03 0.0000000000000000e+00  -3.4971608313031158e-04 6.4691580816541574e-03 0.0000000000000000e+00  -2.0728070252167513e-05 6.6122746793581292e-03 0.0000000000000000e+00  -5.9372565507227777e-05 2.4774228895298039e-03 0.0000000000000000e+00  5.0552629616191938e-04 6.2006477768125770e-03 0.0000000000000000e+00  1.0244193475158200e-04 6.5893827584825124e-03 0.0000000000000000e+00  -9.8603850231195213e-05 6.5938990586014547e-03 0.0000000000000000e+00  -7.6421253001230882e-06 6.6134489838047773e-03 0.0000000000000000e+00  1.6468713133004439e-04 7.2962441947900622e-04 0.0000000000000000e+00  -3.7773057666534818e-04 5.8925511143602940e-03 0.0000000000000000e+00  2.9529349626317018e-05 6.6073302206839301e-03 0.0000000000000000e+00  2.0649249348076617e-04 5.8047838856948013e-03 0.0000000000000000e+00  1.9705295223514240e-04 6.4243427814475182e-03 0.0000000000000000e+00  3.3890872608877175e-04 6.6947175685290626e-03 0.0000000000000000e+00  1.0285805145250021e-03 5.5761913935550153e-03 0.0000000000000000e+00  -1.0523522941650210e-03 5.4874494253982255e-03 0.0000000000000000e+00  1.1388492970504306e-05 6.5823177014622709e-03 0.0000000000000000e+00  -7.5520659173224976e-06 6.5970754724130158e-03 0.0000000000000000e+00  -6.0965552018773270e-04 1.0243848153983998e-03 0.0000000000000000e+00  -3.7971501696066933e-05 6.6298906262668850e-03 0.0000000000000000e+00  -1.7834647606063364e-04 6.6801641835417414e-03 0.0000000000000000e+00  1.3376085568210172e-05 6.5930030867914968e-03 0.0000000000000000e+00  -2.0563334876644390e-06 6.6002707646724409e-03 0.0000000000000000e+00  4.0237480777244088e-05 6.5652681961687193e-03 0.0000000000000000e+00  -4.2822725774522184e-05 5.7517362357955735e-03 0.0000000000000000e+00  -2.4156094006893303e-04 4.5733118297141986e-04 0.0000000000000000e+00  -1.6957694338827455e-05 6.5933609469151439e-03 0.0000000000000000e+00  -3.2448353239888232e-05 6.5687963163433118e-03 0.0000000000000000e+00  -1.2727573500568258e-04 6.4578957447169261e-03 0.0000000000000000e+00  -1.0205281229332004e-05 6.6056285528259826e-03 0.0000000000000000e+00  8.8871638138590637e-04 1.3082304386573399e-03 0.0000000000000000e+00  -8.6403777347097478e-04 6.5715086978317188e-03 0.0000000000000000e+00  4.4319236665362561e-04 4.1905973588163472e-03 0.0000000000000000e+00  -2.1023168117186667e-04 6.2196249076675392e-03 0.0000000000000000e+00  1.9066204863496650e-05 6.5991647299242836e-03 0.0000000000000000e+00  4.2963791755054059e-05 6.6304854562658335e-03 0.0000000000000000e+00  -1.3551186845388095e-03 3.6352951633225666e-03 0.0000000000000000e+00  2.1241847254926819e-04 6.0781441906038259e-03 0.0000000000000000e+00  7.3415920144837454e-05 6.4411577741273771e-03 0.0000000000000000e+00  9.0832632971732732e-04 6.7397197293955317e-03 0.0000000000000000e+00  2.5238141278100273e-06 6.5919707635703631e-03 0.0000000000000000e+00  2.3111003081331406e-04 3.5464927838716484e-04 0.0000000000000000e+00  7.3664426609314174e-06 6.5449060653144757e-03 0.0000000000000000e+00  1.9916836003574519e-03 2.8921852655697678e-03 0.0000000000000000e+00  1.0298332299764321e-04 6.6478483986132679e-03 0.0000000000000000e+00  -7.9678140405657073e-06 6.5450077676884539e-03 0.0000000000000000e+00  -5.0701597574412128e-05 6.4757621884651726e-03 0.0000000000000000e+00  -1.5859662351099625e-05 6.5799535886088192e-03 0.0000000000000000e+00  -7.8803777907484533e-05 6.6287469795832440e-03 0.0000000000000000e+00  -3.9616348224933237e-04 6.7857629769923870e-03 0.0000000000000000e+00  -6.3651819109357989e-06 6.6050934176184184e-03 0.0000000000000000e+00  -1.0279049790737311e-05 4.8210076636029549e-04 0.0000000000000000e+00  -1.6699006426165836e-03 1.8336918193097721e-03 0.0000000000000000e+00  3.6006199972162364e-06 6.5340388506616920e-03 0.0000000000000000e+00  5.5115364564122654e-04 5.2889941007844461e-04 0.0000000000000000e+00  9.8612492085241113e-06 6.5475809907676865e-03 0.0000000000000000e+00  -5.2989891977299139e-04 6.1934074396778104e-03 0.0000000000000000e+00  -1.0823598570107409e-04 5.7068197440370040e-03 0.0000000000000000e+00  1.4565516030911479e-04 6.2016331866000711e-03 0.0000000000000000e+00  4.1273033351747897e-06 6.6046272538296293e-03 0.0000000000000000e+00  -6.8430928011314440e-04 4.5193960913386538e-03 0.0000000000000000e+00  -4.5179331976053725e-04 5.5015910002189890e-03 0.0000000000000000e+00  5.1773100411994021e-05 6.6012445180797042e-03 0.0000000000000000e+00  1.8185147941473948e-05 6.6061446562271477e-03 0.0000000000000000e+00  5.7437948330344454e-04 5.8680837117902063e-03 0.0000000000000000e+00  3.1731165284065133e-05 6.5707549502257035e-03 0.0000000000000000e+00  -1.2061063189874637e-05 6.6153033716100694e-03 0.0000000000000000e+00  6.3846101578630949e-05 1.4789719606784105e-03 0.0000000000000000e+00  -3.9552177786019261e-05 6.6104948070152296e-03 0.0000000000000000e+00  -2.0913291123763394e-04 6.5590034202812732e-03 0.0000000000000000e+00  -1.3048176988938973e-04 6.2548568348678056e-03 0.0000000000000000e+00  4.9628954701065721e-05 5.7877327505786898e-03 0.0000000000000000e+00  3.3715806328275360e-04 6.4835374976157838e-03 0.0000000000000000e+00  2.1939661698014233e-04 6.5692881038915338e-03 0.0000000000000000e+00  8.9053690176030773e-06 6.4005149509032732e-03 0.0000000000000000e+00  -2.0273409565192064e-05 6.3001198159220876e-03 0.0000000000000000e+00  -6.3482645175977337e-04 4.5416149425638811e-04 0.0000000000000000e+00  7.7507795525820174e-05 5.6179562898382700e-03 0.0000000000000000e+00  2.1189670257517191e-03 4.8302275135537172e-03 0.0000000000000000e+00  2.4126178064415632e-05 6.2049687912843210e-03 0.0000000000000000e+00  9.6175947083300056e-05 5.7051953786677106e-03 0.0000000000000000e+00  2.8878903826789396e-05 6.5922569131378070e-03 0.0000000000000000e+00  4.0577688492443023e-04 5.4510394797529357e-03 0.0000000000000000e+00  2.7046459052284288e-05 6.3425513909747934e-03 0.0000000000000000e+00  -2.3763479830644594e-05 6.2784820553079927e-03 0.0000000000000000e+00  -1.0560745308798523e-04 5.7608688872686402e-03 0.0000000000000000e+00  8.8582269696411972e-05 6.1704316429416891e-03 0.0000000000000000e+00  -1.7392266432848439e-04 2.1893666854554055e-04 0.0000000000000000e+00  -3.6416477925591638e-05 6.2850015443412666e-03 0.0000000000000000e+00  4.4652628667516200e-04 6.6552274611478834e-03 0.0000000000000000e+00  -1.1842144392344613e-05 6.6127342230551632e-03 0.0000000000000000e+00  -2.2936766975563112e-04 7.5877610416236077e-04 0.0000000000000000e+00  -1.9374139221197744e-03 6.0177172014739821e-03 0.0000000000000000e+00  9.0159067575231605e-04 6.1581709477822617e-03 0.0000000000000000e+00  -2.7209563606882806e-04 3.5413232568716384e-03 0.0000000000000000e+00  8.5525502836731907e-06 6.6100908340853120e-03 0.0000000000000000e+00  -1.5630245590190546e-05 6.2737211242093133e-03 0.0000000000000000e+00  -6.3519926140224569e-04 5.8836474909811634e-03 0.0000000000000000e+00  -1.0845489844705139e-04 6.6511840424752881e-03 0.0000000000000000e+00  2.0295704896958056e-05 6.2665225462002509e-03 0.0000000000000000e+00  -3.9156685291153592e-05 6.1798130146049476e-03 0.0000000000000000e+00  7.4804943877062200e-05 6.5443847048743103e-03 0.0000000000000000e+00  1.6287980400242752e-05 6.1448216816169443e-03 0.0000000000000000e+00  -1.7198054733341398e-05 6.1547286440779185e-03 0.0000000000000000e+00  -7.7244668691266511e-05 6.1741024219801963e-03 0.0000000000000000e+00  1.8235618749651084e-03 1.3068005639028939e-03 0.0000000000000000e+00  1.6645369156587867e-04 6.4861538611408580e-03 0.0000000000000000e+00  -1.1807377332627060e-03 7.3760488390474052e-04 0.0000000000000000e+00  2.8124592820826818e-04 6.3042774520496439e-03 0.0000000000000000e+00  9.0301274398767243e-06 6.6030170892523443e-03 0.0000000000000000e+00  1.7833053258066080e-03 6.0841682824797714e-03 0.0000000000000000e+00  -5.8990056470310608e-04 1.7874671810314293e-03 0.0000000000000000e+00  -3.2508668341259359e-04 6.6250458991818197e-03 0.0000000000000000e+00  1.0355960148428385e-05 6.5904304098670895e-03 0.0000000000000000e+00  -1.4485476063686037e-05 6.1498512110209746e-03 0.0000000000000000e+00  -4.4269943333757538e-06 6.5966394870261430e-03 0.0000000000000000e+00  -4.0007439676656633e-06 6.1366198759368355e-03 0.0000000000000000e+00  -2.5622914760489934e-05 6.6213515750507702e-03 0.0000000000000000e+00  9.4936756111205988e-06 6.6150023137285371e-03 0.0000000000000000e+00  -1.1077578739647986e-05 6.6037256938078909e-03 0.0000000000000000e+00  -1.3173410803335231e-05 6.5894690091226832e-03 0.0000000000000000e+00  -7.3484617382063024e-05 3.5036721278074314e-04 0.0000000000000000e+00  -2.1652860100447043e-04 6.4184045389059086e-03 0.0000000000000000e+00  -2.0156970884782540e-04 5.7625421712081334e-03 0.0000000000000000e+00  -3.2853878868764899e-05 6.0550024122007469e-03 0.0000000000000000e+00  2.8701879011419223e-05 6.3627372202738107e-03 0.0000000000000000e+00  -9.7067013081211493e-06 6.1476502399464110e-03 0.0000000000000000e+00  -9.5150645799285707e-05 6.5223514989914697e-03 0.0000000000000000e+00  -6.8355640836849642e-05 6.6279219790666621e-03 0.0000000000000000e+00  -2.2314351007010811e-05 6.5964537745633487e-03 0.0000000000000000e+00  -3.0853959700167681e-05 5.5144908340494054e-03 0.0000000000000000e+00  7.6677471740985570e-06 6.3328795740047097e-03 0.0000000000000000e+00  3.0868868497042258e-05 6.2475178682954444e-03 0.0000000000000000e+00  8.7276352239948915e-04 2.1475379882001508e-03 0.0000000000000000e+00  4.2204656356091991e-04 4.9414818051325754e-03 0.0000000000000000e+00  8.8675197795618169e-05 6.6444179756210385e-03 0.0000000000000000e+00  -8.5295405928346723e-07 6.5939732052254013e-03 0.0000000000000000e+00  7.4587927076955266e-05 3.5157628579661623e-04 0.0000000000000000e+00  6.5892138132108715e-04 3.1537670400527871e-03 0.0000000000000000e+00  -6.5880740016740417e-04 6.4662452958508775e-03 0.0000000000000000e+00  3.3842250344938776e-04 5.9744184056863