<?xml version="1.0"?>
<VTKFile type="UnstructuredGrid"  version="0.1"  >
<UnstructuredGrid>
<Piece  NumberOfPoints="853" NumberOfCells="1564">
<Points>
<DataArray  type="Float64"  NumberOfComponents="3"  format="ascii">0 0 0  1 0 0  1 2 0  2 2 0  2 3 0  1 3 0  1 5 0  0 5 0  0.09999999999981467 0 0  0.1999999999995579 0 0  0.2999999999992664 0 0  0.3999999999989749 0 0  0.4999999999986943 0 0  0.5999999999989468 0 0  0.69999999999921 0 0  0.7999999999994734 0 0  0.8999999999997368 0 0  1 0.0999999999997993 0  1 0.1999999999996293 0  1 0.2999999999994072 0  1 0.3999999999991157 0  1 0.4999999999988242 0  1 0.5999999999985328 0  1 0.6999999999982413 0  1 0.7999999999979498 0  1 0.8999999999976585 0  1 0.9999999999973885 0  1 1.09999999999763 0  1 1.199999999997894 0  1 1.299999999998157 0  1 1.39999999999842 0  1 1.499999999998683 0  1 1.599999999998947 0  1 1.69999999999921 0  1 1.799999999999474 0  1 1.899999999999737 0  1.1 2 0  1.2 2 0  1.3 2 0  1.4 2 0  1.5 2 0  1.6 2 0  1.7 2 0  1.8 2 0  1.9 2 0  2 2.1 0  2 2.2 0  2 2.299999999999999 0  2 2.399999999999999 0  2 2.5 0  2 2.6 0  2 2.7 0  2 2.8 0  2 2.9 0  1.9 3 0  1.8 3 0  1.7 3 0  1.6 3 0  1.5 3 0  1.4 3 0  1.3 3 0  1.2 3 0  1.1 3 0  1 3.1 0  1 3.2 0  1 3.299999999999999 0  1 3.399999999999999 0  1 3.499999999999999 0  1 3.599999999999999 0  1 3.699999999999999 0  1 3.799999999999999 0  1 3.899999999999999 0  1 4 0  1 4.1 0  1 4.199999999999999 0  1 4.3 0  1 4.399999999999999 0  1 4.5 0  1 4.6 0  1 4.699999999999999 0  1 4.8 0  1 4.899999999999999 0  0.8999999999995836 5 0  0.7999999999999998 5 0  0.7000000000006934 5 0  0.6000000000013869 5 0  0.5000000000020587 5 0  0.4000000000016644 5 0  0.3000000000012483 5 0  0.2000000000008322 5 0  0.100000000000416 5 0  0 4.899999999999999 0  0 4.8 0  0 4.699999999999999 0  0 4.6 0  0 4.499999999999999 0  0 4.399999999999999 0  0 4.299999999999999 0  0 4.199999999999998 0  0 4.099999999999999 0  0 3.999999999999999 0  0 3.899999999999999 0  0 3.799999999999999 0  0 3.699999999999998 0  0 3.599999999999999 0  0 3.499999999999999 0  0 3.399999999999999 0  0 3.299999999999999 0  0 3.199999999999998 0  0 3.099999999999999 0  0 2.999999999999999 0  0 2.899999999999999 0  0 2.799999999999999 0  0 2.699999999999999 0  0 2.599999999999999 0  0 2.5 0  0 2.399999999999999 0  0 2.299999999999999 0  0 2.199999999999999 0  0 2.1 0  0 2 0  0 1.899999999999999 0  0 1.799999999999999 0  0 1.699999999999999 0  0 1.599999999999999 0  0 1.5 0  0 1.399999999999999 0  0 1.299999999999999 0  0 1.199999999999999 0  0 1.1 0  0 0.9999999999999991 0  0 0.8999999999999995 0  0 0.7999999999999998 0  0 0.7000000000000002 0  0 0.5999999999999996 0  0 0.4999999999999991 0  0 0.3999999999999995 0  0 0.3000000000000007 0  0 0.1999999999999993 0  0 0.09999999999999964 0  0.6166569079913358 2.492277433160826 0  0.496804750005887 0.5479593764091243 0  0.5000000000000001 3.249999999999996 0  0.5010746240977132 4.146233959879961 0  1.15284373704454 2.508044505059064 0  0.5115316434189965 1.955545969082757 0  0.4999999999999211 1.349999999999999 0  0.4689171957673295 3.679717700049328 0  0.5612906571832685 4.583387229041095 0  1.571380248656294 2.43209333797878 0  0.4137140166874343 2.842788829011612 0  0.5924999999992734 0.9499999999993549 0  0.3530983922827606 2.277151253345766 0  0.3374999999999892 1.65000000000002 0  0.6755701284515059 1.666012036452857 0  0.7199661008857956 2.178412873198308 0  0.7334525640603837 2.809285576954712 0  0.3169326937911943 0.8062495868452884 0  0.3138857644565878 4.404201202807377 0  1.409460640835247 2.684430832001214 0  0.6887829815303428 3.902565963060691 0  0.6887829815303437 3.49743403693931 0  0.3083333333329294 0.3083333333329091 0  0.6836117544982274 0.312527457707179 0  0.3168915343039068 1.103810255435239 0  0.3022648077978692 2.555831328112146 0  1.699661159477641 2.699661159477642 0  0.3119190378227792 4.685290485878375 0  0.2857741186203023 3.950276087647296 0  0.2901796187683303 3.455359237536657 0  0.7185169821104359 4.329943392965225 0  1.329943392965171 2.281483017889551 0  0.723334373514972 3.086114578383237 0  0.8872939267661155 2.418951697643693 0  0.2683606383900753 3.107323129784811 0  0.7213259925957727 0.709299358069827 0  0.7248933848217622 1.191311282739447 0  0.9946254212153881 2.725887626364616 0  0.2534599397489012 2.044779020535383 0  0.2472238456272076 1.409843650950396 0  0.7466779594322671 1.891779594322711 0  0.751445254703026 4.751445254703024 0  1.751445254703023 2.248554745296977 0  0.2308928978487501 0.5537472873885254 0  1.08084306636788 2.246658930824796 0  0.7618726449950816 1.428238687173948 0  0.2386599654867296 4.176198813049547 0  0.2277655772754102 3.726664793307169 0  0.7721651484755335 4.113350253753182 0  0.7651749878558429 3.697580220958253 0  0.7656850901336474 3.299617602969102 0  0.4980799523915615 4.792356177625049 0  1.776143433203817 2.501327251062086 0  1.208880242020366 2.780272536786154 0  0.7911996774911533 4.53781383416655 0  1.542032468257247 2.216473886475725 0  0.7821379364211358 0.4969347839607502 0  0.5159796121199893 3.035942476666499 0  0.1994782516945909 2.77487521870957 0  0.2121527327795772 1.820534480974185 0  0.4961068761097068 0.2091473007262267 0  0.8212076849290986 2.630353036209751 0  0.5799159337228276 2.696151511257179 0  0.521656415787208 1.134485020795658 0  0.5198027681168929 0.7515845938922632 0  0.5314469083329 2.149920708093939 0  0.8022340879252141 0.949830582795168 0  0.5153738125904214 4.366355293244797 0  1.369864008384514 2.483509168319498 0  0.493575298272567 3.951867463619321 0  0.4920800561363075 3.451776843677214 0  0.1993224400966551 3.276384038573164 0  0.2040352237160636 2.400557997609325 0  0.504974575031962 1.751372233424674 0  0.499694528062418 1.552255000835086 0  0.1883367598055906 0.9438245084748886 0  0.1955706745794366 4.52834806507854 0  1.537127505356749 2.822707438948337 0  0.4347408457716787 2.442047619826679 0  0.9025073455677252 2.163749048054409 0  0.1773846193758333 1.247310083483254 0  0.1790840974615431 2.196648468506937 0  0.4241221003595179 0.9580937949419669 0  0.5742095764754795 2.324790710904777 0  0.1810593287337392 0.1648759332410678 0  0.830532350559559 0.1714616318750705 0  0.1799849931748815 2.936783687129475 0  0.1700601135178742 1.60121319242071 0  1.834470454079937 2.829637832875926 0  0.1703621671240551 4.83447045408015 0  0.829990552477618 1.736728469669415 0  0.3976185944449355 4.553236496558402 0  1.555161286389273 2.597039871453049 0  0.8411335884160621 2.955436961449523 0  0.6558334436081007 2.021696625357631 0  0.9866801805488914 2.554042320868289 0  0.4842405954457978 0.3674248026875673 0  0.1764810578689407 0.6996979327130011 0  0.5695354616787965 2.867647040045057 0  0.627187487409925 3.659501677082119 0  0.1696270647651137 0.3969694240763386 0  0.1588761645418826 3.579667620980887 0  0.3504882684591691 1.27320675399182 0  0.1613150679413317 4.323270191935268 0  0.8439697987258331 3.850137374173121 0  0.8582592809978382 3.556895103851285 0  1.2205291243602 2.169320339907971 0  0.8274853269315643 1.578104600362255 0  1.35480687481049 2.843927765640049 0  0.3677577894563876 1.843336837909973 0  0.3739468553634951 0.650971017289567 0  0.8175350952416559 2.032763453059245 0  1.255052217924463 2.621284633706947 0  0.6275139014702615 3.348445849128012 0  0.3500097682353719 0.1540209779916574 0  0.8470720720723232 0.3499999999992615 0  0.6516218900422024 0.1543745010121346 0  0.1570362925186822 4.034940931583384 0  0.6259846398323782 4.050387381032598 0  0.6243837498547334 0.4550390732635957 0  0.3764337664925781 4.252429701173535 0  0.3638240662285239 4.845889022715784 0  1.841058165929382 2.650192415774816 0  0.3538129642253492 3.310506091581767 0  0.3972635403128369 2.692091228217206 0  0.1493546974812203 3.864275696990799 0  0.8353411562925317 1.295894841996498 0  0.8510640038578493 4.24376876336904 0  0.3274183905250344 3.60709353923235 0  0.5690599951287177 3.803379429947107 0  0.3608465922823166 4.079737353610348 0  0.1464953658605303 2.61946161625165 0  0.8522365706696342 1.101349250004825 0  0.8462743532452005 0.8012074197151465 0  1.200278576701711 2.350961992006298 0  0.7326508832134601 2.394973662719556 0  0.6648495127067672 1.330201720826574 0  0.6421476239135478 4.851671120026346 0  1.851998954991891 2.359839578227697 0  1.041233083983184 2.39820467647697 0  0.8526824909154477 3.164884108363255 0  0.3803758752537028 2.126429281492964 0  0.6420376057736918 4.200165882518018 0  0.8501088759525246 4.401734271500779 0  1.398058673633662 2.147688933973308 0  0.8545605983512565 0.6343835319818829 0  1.072584152252426 2.853228937916825 0  0.8462674517070675 4.851971641280215 0  1.853403041422536 2.15097879283758 0  0.3930760976266651 3.836742518240063 0  0.1459746256495623 1.094533214558924 0  0.1449604950589468 3.41641374300675 0  0.360147239891959 1.507070948822289 0  0.1371791188132176 3.14627243933882 0  0.1373781948221472 1.948699496915061 0  0.8787091687571863 2.813528399808599 0  0.640346663916172 3.202454813230568 0  0.1447898426935465 4.687821488540191 0  1.681222862898315 2.858606263227755 0  0.6057151088165942 1.858748550906064 0  0.6959087423316198 1.05023956637574 0  0.6929156491439609 0.8504350871602226 0  0.3804448021156934 2.991689533004409 0  0.4069998378428982 3.136829475620725 0  0.6221516319980132 1.461574324140038 0  0.8595221684437686 4.671970471025065 0  1.655041305862432 2.135199824735708 0  0.8397218722524009 3.992237826182404 0  0.6648391028671355 4.465773104071535 0  1.462522756387578 2.335702451268775 0  1.107872485384334 2.648667416202137 0  0.6412014890654342 0.5971222632485688 0  0.8285592833177335 2.286311487886619 0  0.4769010664620999 2.574488224117733 0  0.3384926303571551 0.445684366822149 0  0.622529668465069 4.711696333659297 0  1.70347020696268 2.379656531207025 0  0.673413754958227 2.634174081826437 0  0.8424185362726981 3.41410212582428 0  0.1496314029302428 1.699903720635713 0  0.6712113209446312 2.961657242108266 0  0.1318402597280083 0.83835
[...]
<PointData  Vectors="f_15"> 
<DataArray  type="Float64"  Name="f_15"  NumberOfComponents="3" format="ascii">-1.2203088310260845e-07 1.1696872217583784e-07 0.0000000000000000e+00  -2.7700141176186113e-07 -2.1070097590485829e-08 0.0000000000000000e+00  2.5835571960369729e-06 1.0887146103125231e-07 0.0000000000000000e+00  -4.0598448373035243e-08 -3.3382388764410851e-08 0.0000000000000000e+00  1.5975093925090010e-08 -1.0769080809039087e-08 0.0000000000000000e+00  -2.7259769132980322e-06 3.9930557792980103e-07 0.0000000000000000e+00  3.8511657042921324e-07 1.0776804943744644e-07 0.0000000000000000e+00  -1.9991842431005941e-07 6.5778298739148628e-08 0.0000000000000000e+00  5.0390157153293048e-05 9.2964114246853885e-03 0.0000000000000000e+00  1.5818827667810891e-05 9.8061529732695364e-03 0.0000000000000000e+00  1.3412993758279738e-05 9.8791450370860970e-03 0.0000000000000000e+00  5.2731740096865573e-06 9.8950636898371743e-03 0.0000000000000000e+00  1.9137732450908752e-06 9.9019335279931821e-03 0.0000000000000000e+00  -4.4975389757602027e-07 9.9003136992851515e-03 0.0000000000000000e+00  -7.7008798130566756e-06 9.8915149577703428e-03 0.0000000000000000e+00  -1.0289057374659068e-05 9.8284957027086010e-03 0.0000000000000000e+00  -5.1715845541988241e-05 9.3268866205829058e-03 0.0000000000000000e+00  2.9050181685724894e-07 3.0435694916498720e-07 0.0000000000000000e+00  -7.9776547752521287e-07 -5.1540823609988434e-07 0.0000000000000000e+00  8.5794180026935572e-07 6.4102951427261925e-07 0.0000000000000000e+00  -2.6246679592330743e-07 3.6259958617022494e-07 0.0000000000000000e+00  2.1320234216737985e-07 -7.4552462883715366e-07 0.0000000000000000e+00  -5.4424386709671381e-07 1.2117720513921813e-06 0.0000000000000000e+00  2.2820093855972168e-07 -1.0237231465269237e-07 0.0000000000000000e+00  6.0165722072467843e-07 -2.2314971778427836e-07 0.0000000000000000e+00  -2.9496828362366482e-07 2.6987033716911730e-07 0.0000000000000000e+00  2.0794154780764731e-07 -1.2162645025469269e-07 0.0000000000000000e+00  4.8617299471708032e-09 -3.7249863960318494e-07 0.0000000000000000e+00  -1.8538695905096214e-07 7.1711608316262893e-08 0.0000000000000000e+00  -5.4393357255250150e-07 -2.1196949475666494e-11 0.0000000000000000e+00  -2.3350799208424635e-07 -2.2496668301154460e-07 0.0000000000000000e+00  3.7906501454825582e-07 5.1978554377014009e-07 0.0000000000000000e+00  -2.2469648376387006e-07 -2.5970987589305268e-07 0.0000000000000000e+00  -9.0953400674148623e-07 -9.1783524484770620e-07 0.0000000000000000e+00  1.3688977664148421e-06 2.3629573267267861e-06 0.0000000000000000e+00  1.8442707495228867e-06 1.0659461344764453e-07 0.0000000000000000e+00  1.3473702352761344e-06 -3.2009244139499070e-07 0.0000000000000000e+00  -7.7869482850870770e-07 -1.7587221205706850e-06 0.0000000000000000e+00  -4.7152346080472326e-07 -9.1656891972339393e-07 0.0000000000000000e+00  -4.0866714565965871e-07 -5.4570350988326769e-07 0.0000000000000000e+00  -2.1204571333495559e-07 -1.1869579867084999e-07 0.0000000000000000e+00  -1.0538657152115856e-07 -8.2665396013874439e-08 0.0000000000000000e+00  9.7350606499597075e-09 3.0176489033151803e-08 0.0000000000000000e+00  -4.9238367546874582e-08 -4.2112904659387168e-08 0.0000000000000000e+00  7.9954878396769768e-09 1.2339527513321026e-08 0.0000000000000000e+00  1.8818464069839937e-08 2.2303748094998833e-08 0.0000000000000000e+00  -5.5259747376634009e-08 -1.1986451199981167e-08 0.0000000000000000e+00  -2.6152725221255982e-08 -1.5318272033591725e-08 0.0000000000000000e+00  2.2953432094868841e-08 7.5778459366922976e-08 0.0000000000000000e+00  -4.5704255458507857e-09 -4.7108739135782063e-08 0.0000000000000000e+00  2.2747707746671056e-08 -2.3576959033086632e-08 0.0000000000000000e+00  -3.7377495279469382e-08 4.8138626566738732e-08 0.0000000000000000e+00  4.8798031471819703e-08 -1.9412091315104563e-08 0.0000000000000000e+00  5.0384869674192035e-09 1.3416151700040455e-08 0.0000000000000000e+00  -6.8109230382896711e-09 2.5781437009062834e-08 0.0000000000000000e+00  3.5080395147225388e-08 -2.0425122490332628e-08 0.0000000000000000e+00  6.2696846633972099e-08 -2.6659355286578965e-08 0.0000000000000000e+00  5.4717455753685201e-08 -3.4405214212834450e-08 0.0000000000000000e+00  3.3248857703834069e-07 -2.9851663188924426e-07 0.0000000000000000e+00  4.6733936827542588e-07 -6.4518639600020749e-07 0.0000000000000000e+00  6.5545222642190842e-07 -1.6312260359869453e-06 0.0000000000000000e+00  6.2361456483197836e-07 -1.7655880225837144e-06 0.0000000000000000e+00  -2.1298053080367300e-06 6.0475271739725456e-07 0.0000000000000000e+00  -1.5218659179352979e-06 7.0827740282888276e-07 0.0000000000000000e+00  -1.6020786064113014e-06 1.6507436214156123e-06 0.0000000000000000e+00  1.9004939146195436e-06 -5.4150704387885995e-07 0.0000000000000000e+00  1.5450205072365517e-07 -4.3099406160042474e-07 0.0000000000000000e+00  6.6128166865051084e-07 -3.3020944322132207e-07 0.0000000000000000e+00  4.2662452527992490e-07 6.0820257642310490e-07 0.0000000000000000e+00  -1.2461370670441973e-07 -4.3995079307914775e-07 0.0000000000000000e+00  -1.5990776468602746e-07 5.1947328914694756e-07 0.0000000000000000e+00  -7.2163326529456669e-07 2.8042259324394798e-07 0.0000000000000000e+00  8.5136713896821343e-07 -2.3746647172673450e-07 0.0000000000000000e+00  -6.2575722977820884e-07 5.8674958365954623e-08 0.0000000000000000e+00  5.0908541098131333e-07 -1.6063823058021961e-07 0.0000000000000000e+00  -5.9704635517784577e-07 -8.5153045033270024e-08 0.0000000000000000e+00  9.0341007612499943e-07 3.7614523885328757e-07 0.0000000000000000e+00  -6.4453072467852982e-07 -1.2281046821784428e-07 0.0000000000000000e+00  8.6720669378965818e-07 -5.4596111366406813e-08 0.0000000000000000e+00  -6.8221582883038783e-07 1.7978066186261989e-07 0.0000000000000000e+00  4.1013178080132608e-07 -6.6397657747017758e-07 0.0000000000000000e+00  -6.3974301748796443e-07 5.9948788232827315e-07 0.0000000000000000e+00  -1.7573054682558573e-05 9.4810830841452164e-03 0.0000000000000000e+00  -6.8928608570737210e-06 9.8690063532699823e-03 0.0000000000000000e+00  -4.1856233031469769e-06 9.8913696819911395e-03 0.0000000000000000e+00  -2.3050347108735941e-06 9.9017630854173581e-03 0.0000000000000000e+00  -4.1396471238598444e-06 9.9006765235175979e-03 0.0000000000000000e+00  -6.4355632560998698e-06 9.8928786148786124e-03 0.0000000000000000e+00  -1.3714328929992083e-05 9.8756967410374100e-03 0.0000000000000000e+00  -1.7298410310770589e-05 9.8038378508957871e-03 0.0000000000000000e+00  -4.0963361647292781e-05 9.3347227268715197e-03 0.0000000000000000e+00  5.6879692377149584e-07 3.6019364312565117e-07 0.0000000000000000e+00  -8.8906494711335068e-07 -5.8360848712233526e-07 0.0000000000000000e+00  -5.0982617099555396e-08 2.4214088548920319e-08 0.0000000000000000e+00  9.3803685785263706e-07 1.4977137687111848e-06 0.0000000000000000e+00  4.4186832868402626e-09 -6.3543699804728990e-07 0.0000000000000000e+00  -2.6614453312593840e-07 -4.6351591288083904e-07 0.0000000000000000e+00  -5.0479239174082724e-07 1.9553190869135387e-06 0.0000000000000000e+00  4.9348520687879440e-08 -6.1280792589376030e-07 0.0000000000000000e+00  4.7288123528347119e-07 1.5539896722330995e-07 0.0000000000000000e+00  -9.1119544099736354e-07 -3.1169639759783122e-08 0.0000000000000000e+00  1.3854066764638066e-06 6.1671825764884916e-07 0.0000000000000000e+00  2.6772087164783667e-08 -2.2430531523171968e-08 0.0000000000000000e+00  2.4352762009145987e-07 -4.2046444111341957e-07 0.0000000000000000e+00  -1.5575695104681317e-06 9.1138683197359222e-07 0.0000000000000000e+00  -4.9537507622590149e-08 8.7663074969204969e-08 0.0000000000000000e+00  1.2210032801961935e-06 5.8176603485824344e-07 0.0000000000000000e+00  -3.4091270613242102e-07 -4.7455271073941647e-07 0.0000000000000000e+00  6.4123596814566460e-07 5.5855346330618102e-07 0.0000000000000000e+00  -7.0682965600167189e-07 2.9608678424389015e-07 0.0000000000000000e+00  5.8738939255712156e-07 -4.4666649201701329e-07 0.0000000000000000e+00  -3.8636847525492866e-07 5.8555939049234872e-07 0.0000000000000000e+00  4.0959087145787116e-07 -8.3949447314123611e-08 0.0000000000000000e+00  2.9634837132843925e-07 -9.2501515516674485e-09 0.0000000000000000e+00  -5.1354996402509472e-08 -7.8182887659127654e-08 0.0000000000000000e+00  1.4428857220905336e-08 -6.5110066604589572e-08 0.0000000000000000e+00  -2.0585623633822065e-07 6.3924952224155407e-08 0.0000000000000000e+00  1.2752229705666861e-07 5.5184051458446444e-08 0.0000000000000000e+00  7.8823519278833830e-08 -2.4871631076425570e-08 0.0000000000000000e+00  -1.7492242954360238e-07 5.7640690279536642e-08 0.0000000000000000e+00  7.0457715820032587e-07 9.0220207614360123e-07 0.0000000000000000e+00  -2.8835751481910575e-07 -5.1416931418191436e-07 0.0000000000000000e+00  -1.8263498321144482e-07 -2.5994229915560743e-07 0.0000000000000000e+00  -4.1373743200790430e-07 1.0796241170598013e-06 0.0000000000000000e+00  6.8693967615920341e-07 7.9144517697115997e-09 0.0000000000000000e+00  5.1455274145282329e-07 -1.1814881198209120e-07 0.0000000000000000e+00  -4.4543140847182153e-08 -3.1783575956538831e-07 0.0000000000000000e+00  4.3719974350115503e-07 3.1126926239626211e-07 0.0000000000000000e+00  -3.3797380610832947e-07 -2.6005390578847505e-07 0.0000000000000000e+00  9.9794887847580953e-08 -9.5783986593907456e-08 0.0000000000000000e+00  -8.1640449650015330e-07 2.0318442346495190e-07 0.0000000000000000e+00  -3.1457840230200708e-07 -2.0360442820366059e-07 0.0000000000000000e+00  -7.9555431497937235e-07 -1.2364444465853814e-07 0.0000000000000000e+00  5.1792615271201806e-07 5.0834478301613661e-07 0.0000000000000000e+00  -1.4355756010315648e-07 9.7092270214541117e-08 0.0000000000000000e+00  -1.1241383533121573e-07 -2.9002138755512147e-07 0.0000000000000000e+00  -9.7652445057107327e-07 5.4927395588294402e-07 0.0000000000000000e+00  5.1527212530353051e-07 -3.2874492799926525e-08 0.0000000000000000e+00  8.6342576762974713e-07 -2.4571656823897076e-07 0.0000000000000000e+00  5.6858169873583324e-07 9.7911839442231622e-08 0.0000000000000000e+00  2.8645267021566328e-05 7.9054103812108995e-03 0.0000000000000000e+00  1.7324658214857177e-05 9.9172353379997757e-03 0.0000000000000000e+00  -5.2458675521743997e-04 9.7037505192805688e-03 0.0000000000000000e+00  -3.1070223271819089e-05 9.9182287167271684e-03 0.0000000000000000e+00  -8.8429124390444644e-05 3.7160359685069581e-03 0.0000000000000000e+00  7.5877670717666083e-04 9.3013297089224005e-03 0.0000000000000000e+00  1.5391409612946789e-04 9.8842828031760338e-03 0.0000000000000000e+00  -1.4790824143155203e-04 9.8906768851393708e-03 0.0000000000000000e+00  -1.1324940675370924e-05 9.9201685798172463e-03 0.0000000000000000e+00  2.4593303426227801e-04 1.0953347521737121e-03 0.0000000000000000e+00  -5.6618526281403819e-04 8.8396220433513747e-03 0.0000000000000000e+00  4.4280183393859550e-05 9.9111843161887401e-03 0.0000000000000000e+00  3.0976816474746906e-04 8.7071062636326045e-03 0.0000000000000000e+00  2.9557614490591477e-04 9.6370797560451603e-03 0.0000000000000000e+00  5.0824780030919617e-04 1.0042090243947616e-02 0.0000000000000000e+00  1.5426837315351363e-03 8.3634038386062280e-03 0.0000000000000000e+00  -1.5784487340861281e-03 8.2305009981922944e-03 0.0000000000000000e+00  1.7035270577560176e-05 9.8739713694924545e-03 0.0000000000000000e+00  -1.1140857215965679e-05 9.8961309464943026e-03 0.0000000000000000e+00  -9.1465094194055955e-04 1.5365005749416727e-03 0.0000000000000000e+00  -5.7179936321775914e-05 9.9454582920086836e-03 0.0000000000000000e+00  -2.6746142607164328e-04 1.0020891283109195e-02 0.0000000000000000e+00  1.9774368132030719e-05 9.8904642878767379e-03 0.0000000000000000e+00  -2.7824355069922208e-06 9.9012545421213842e-03 0.0000000000000000e+00  6.0251858242298880e-05 9.8482622316768652e-03 0.0000000000000000e+00  -6.4436544856388540e-05 8.6282183531069499e-03 0.0000000000000000e+00  -3.6228517522727828e-04 6.8605426797967183e-04 0.0000000000000000e+00  -2.5075557105371576e-05 9.8907658470440852e-03 0.0000000000000000e+00  -4.8532682188559429e-05 9.8541142188702142e-03 0.0000000000000000e+00  -1.9075996479307701e-04 9.6879650018565321e-03 0.0000000000000000e+00  -1.5452348063677988e-05 9.9093676654949496e-03 0.0000000000000000e+00  1.3346479634312601e-03 1.9609406367562215e-03 0.0000000000000000e+00  -1.2974588288070022e-03 9.8598010075585142e-03 0.0000000000000000e+00  6.6491376961674083e-04 6.2857488516209429e-03 0.0000000000000000e+00  -3.1564453616034834e-04 9.3300249815152156e-03 0.0000000000000000e+00  2.8352470540614379e-05 9.8997923440876483e-03 0.0000000000000000e+00  6.4616905214854496e-05 9.9470259444525561e-03 0.0000000000000000e+00  -2.0352982399895973e-03 5.4548903331967666e-03 0.0000000000000000e+00  3.1874403046648479e-04 9.1180939948177307e-03 0.0000000000000000e+00  1.1091908704429025e-04 9.6650288717648070e-03 0.0000000000000000e+00  1.3629843209252493e-03 1.0111588822323945e-02 0.0000000000000000e+00  3.5764244668400180e-06 9.8894199816273037e-03 0.0000000000000000e+00  3.4656714387308260e-04 5.3231260965765071e-04 0.0000000000000000e+00  1.1066184280533135e-05 9.8172028373985851e-03 0.0000000000000000e+00  2.9846692628686137e-03 4.3386805944423176e-03 0.0000000000000000e+00  1.5498021473458372e-04 9.9757811393829440e-03 0.0000000000000000e+00  -1.2202347582890844e-05 9.8204467125462148e-03 0.0000000000000000e+00  -7.5851522006286276e-05 9.7144196837336255e-03 0.0000000000000000e+00  -2.3628215597022323e-05 9.8729125246026801e-03 0.0000000000000000e+00  -1.1806101862711509e-04 9.9460353186088431e-03 0.0000000000000000e+00  -5.9391215861412697e-04 1.0181636923206092e-02 0.0000000000000000e+00  -9.4149311514375157e-06 9.9077089724738578e-03 0.0000000000000000e+00  -1.5469226036222197e-05 7.2314993556791423e-04 0.0000000000000000e+00  -2.5035532704546638e-03 2.7460721249522708e-03 0.0000000000000000e+00  5.3243928036638846e-06 9.8025021049436140e-03 0.0000000000000000e+00  8.2755188546400707e-04 7.9258483964619636e-04 0.0000000000000000e+00  1.4966085021701283e-05 9.8224076904221014e-03 0.0000000000000000e+00  -7.9480163358690260e-04 9.2905486780461496e-03 0.0000000000000000e+00  -1.6257075184517906e-04 8.5634761873716655e-03 0.0000000000000000e+00  2.1823739847765723e-04 9.3037530402206026e-03 0.0000000000000000e+00  6.1564996207884083e-06 9.9072437119706556e-03 0.0000000000000000e+00  -1.0254121320364268e-03 6.7808251601284954e-03 0.0000000000000000e+00  -6.7704233756759723e-04 8.2524751338200839e-03 0.0000000000000000e+00  7.7705958787492802e-05 9.9020477902727628e-03 0.0000000000000000e+00  2.7178352439321233e-05 9.9093289819325841e-03 0.0000000000000000e+00  8.6125455008653805e-04 8.8022089359996742e-03 0.0000000000000000e+00  4.7591982364186381e-05 9.8585707222407625e-03 0.0000000000000000e+00  -1.8021924414878567e-05 9.9228734116643229e-03 0.0000000000000000e+00  9.6811276847734372e-05 2.2165756690255560e-03 0.0000000000000000e+00  -5.9295632838076973e-05 9.9156191842491165e-03 0.0000000000000000e+00  -3.1367076607995072e-04 9.8386889709126246e-03 0.0000000000000000e+00  -1.9513879500799745e-04 9.3854570713936963e-03 0.0000000000000000e+00  7.4299827079031864e-05 8.6836603110783481e-03 0.0000000000000000e+00  5.0633955460535325e-04 9.7250672893499195e-03 0.0000000000000000e+00  3.2897387611307129e-04 9.8538882390194118e-03 0.0000000000000000e+00  1.4277140655054107e-05 9.6050986985150039e-03 0.0000000000000000e+00  -2.9213470811702273e-05 9.4585216489038119e-03 0.0000000000000000e+00  -9.5322213390400007e-04 6.8111445386472567e-04 0.0000000000000000e+00  1.1637179478424807e-04 8.4274631897231708e-03 0.0000000000000000e+00  3.1783971304199963e-03 7.2473995314922962e-03 0.0000000000000000e+00  3.7000793514933237e-05 9.3167808798676876e-03 0.0000000000000000e+00  1.4471087532165125e-04 8.5646013727977959e-03 0.0000000000000000e+00  4.3305556703246950e-05 9.8885272052129710e-03 0.0000000000000000e+00  6.0877250166446978e-04 8.1763644157772965e-03 0.0000000000000000e+00  3.8861373473768431e-05 9.5190886151975563e-03 0.0000000000000000e+00  -3.4371388318455746e-05 9.4265120688480624e-03 0.0000000000000000e+00  -1.5984365094008244e-04 8.6495532148642765e-03 0.0000000000000000e+00  1.3439023475692724e-04 9.2632883083629148e-03 0.0000000000000000e+00  -2.6133716112982139e-04 3.2840174125537460e-04 0.0000000000000000e+00  -5.3407478054582145e-05 9.4366803725431207e-03 0.0000000000000000e+00  6.6871296869087189e-04 9.9951780797515009e-03 0.0000000000000000e+00  -1.7613247873929860e-05 9.9190379998241977e-03 0.0000000000000000e+00  -3.4326486734168185e-04 1.1385765464041160e-03 0.0000000000000000e+00  -2.9052625964915250e-03 9.0409657922393590e-03 0.0000000000000000e+00  1.3517951613812465e-03 9.2377406624526062e-03 0.0000000000000000e+00  -4.0993143505864486e-04 5.3128697950078681e-03 0.0000000000000000e+00  1.2712731376749294e-05 9.9152185624774899e-03 0.0000000000000000e+00  -2.3754861552491279e-05 9.4199385545103362e-03 0.0000000000000000e+00  -9.5301886422322036e-04 8.8255863386087659e-03 0.0000000000000000e+00  -1.6266798810228109e-04 9.9766081713080022e-03 0.0000000000000000e+00  3.0813551110939678e-05 9.4075553239288019e-03 0.0000000000000000e+00  -5.8758450380828141e-05 9.2774781459043845e-03 0.0000000000000000e+00  1.1231177901607265e-04 9.8172375527320766e-03 0.0000000000000000e+00  2.3300899855586679e-05 9.2308325694039316e-03 0.0000000000000000e+00  -2.6218364893584409e-05 9.2502208403881236e-03 0.0000000000000000e+00  -1.1598846523988275e-04 9.2864240285278430e-03 0.0000000000000000e+00  2.7396940102627754e-03 1.9626420168700077e-03 0.0000000000000000e+00  2.5052340038699304e-04 9.7424525125191386e-03 0.0000000000000000e+00  -1.7742578059996620e-03 1.1067042307809063e-03 0.0000000000000000e+00  4.2211492220751946e-04 9.4562807462428983e-03 0.0000000000000000e+00  1.3459151917419360e-05 9.9046275974120808e-03 0.0000000000000000e+00  2.6730925782838728e-03 9.1371659354990992e-03 0.0000000000000000e+00  -8.8609110494900086e-04 2.6816154221896041e-03 0.0000000000000000e+00  -4.8762368836056036e-04 9.9383973808625601e-03 0.0000000000000000e+00  1.5174926765433358e-05 9.8863567182972331e-03 0.0000000000000000e+00  -2.0885855226620314e-05 9.2398822888683108e-03 0.0000000000000000e+00  -6.2099307599513060e-06 9.8957595959011033e-03 0.0000000000000000e+00  -6.1894344398673123e-06 9.2181398990232831e-03 0.0000000000000000e+00  -3.8450529567147152e-05 9.9320201753917547e-03 0.0000000000000000e+00  1.4183522647808800e-05 9.9225327331100305e-03 0.0000000000000000e+00  -1.6595935143877874e-05 9.9055851788629364e-03 0.0000000000000000e+00  -1.9249437428732920e-05 9.8849556806116061e-03 0.0000000000000000e+00  -1.1061516231148657e-04 5.2621912217861583e-04 0.0000000000000000e+00  -3.2453747855389910e-04 9.6278142644501252e-03 0.0000000000000000e+00  -3.0278681619591840e-04 8.6443513654070898e-03 0.0000000000000000e+00  -4.8751613069203722e-05 9.1003349386118027e-03 0.0000000000000000e+00  4.3344356377557344e-05 9.5522473142981516e-03 0.0000000000000000e+00  -1.4421075787702086e-05 9.2373208664018620e-03 0.0000000000000000e+00  -1.4276850140944932e-04 9.7841825681054140e-03 0.0000000000000000e+00  -1.0246683664636455e-04 9.9417588796650476e-03 0.0000000000000000e+00  -3.3433872074759936e-05 9.8948118023946992e-03 0.0000000000000000e+00  -4.6079769774913270e-05 8.2837443613136916e-03 0.0000000000000000e+00  1.2284494206311901e-05 9.5095710806243888e-03 0.0000000000000000e+00  4.4510612118057717e-05 9.3843716217978310e-03 0.0000000000000000e+00  1.3083579121847095e-03 3.2195463267553803e-03 0.0000000000000000e+00  6.3250167057016758e-04 7.4121397649929014e-03 0.0000000000000000e+00  1.3327426411528163e-04 9.9671960545941757e-03 0.0000000000000000e+00  -1.3377768121250268e-06 9.8916702681784811e-03 0.0000000000000000e+00  1.1190982725388366e-04 5.2780418735249527e-04 0.0000000000000000e+00  9.8865773073093777e-04 4.7314268006220404e-03 0.0000000000000000e+00  -9.9300207563583916e-04 9.7279973707760491e-03 0.0000000000000000e+00  5.0704800