<?xml version="1.0"?>
<VTKFile type="UnstructuredGrid"  version="0.1"  >
<UnstructuredGrid>
<Piece  NumberOfPoints="853" NumberOfCells="1564">
<Points>
<DataArray  type="Float64"  NumberOfComponents="3"  format="ascii">0 0 0  1 0 0  1 2 0  2 2 0  2 3 0  1 3 0  1 5 0  0 5 0  0.09999999999981467 0 0  0.1999999999995579 0 0  0.2999999999992664 0 0  0.3999999999989749 0 0  0.4999999999986943 0 0  0.5999999999989468 0 0  0.69999999999921 0 0  0.7999999999994734 0 0  0.8999999999997368 0 0  1 0.0999999999997993 0  1 0.1999999999996293 0  1 0.2999999999994072 0  1 0.3999999999991157 0  1 0.4999999999988242 0  1 0.5999999999985328 0  1 0.6999999999982413 0  1 0.7999999999979498 0  1 0.8999999999976585 0  1 0.9999999999973885 0  1 1.09999999999763 0  1 1.199999999997894 0  1 1.299999999998157 0  1 1.39999999999842 0  1 1.499999999998683 0  1 1.599999999998947 0  1 1.69999999999921 0  1 1.799999999999474 0  1 1.899999999999737 0  1.1 2 0  1.2 2 0  1.3 2 0  1.4 2 0  1.5 2 0  1.6 2 0  1.7 2 0  1.8 2 0  1.9 2 0  2 2.1 0  2 2.2 0  2 2.299999999999999 0  2 2.399999999999999 0  2 2.5 0  2 2.6 0  2 2.7 0  2 2.8 0  2 2.9 0  1.9 3 0  1.8 3 0  1.7 3 0  1.6 3 0  1.5 3 0  1.4 3 0  1.3 3 0  1.2 3 0  1.1 3 0  1 3.1 0  1 3.2 0  1 3.299999999999999 0  1 3.399999999999999 0  1 3.499999999999999 0  1 3.599999999999999 0  1 3.699999999999999 0  1 3.799999999999999 0  1 3.899999999999999 0  1 4 0  1 4.1 0  1 4.199999999999999 0  1 4.3 0  1 4.399999999999999 0  1 4.5 0  1 4.6 0  1 4.699999999999999 0  1 4.8 0  1 4.899999999999999 0  0.8999999999995836 5 0  0.7999999999999998 5 0  0.7000000000006934 5 0  0.6000000000013869 5 0  0.5000000000020587 5 0  0.4000000000016644 5 0  0.3000000000012483 5 0  0.2000000000008322 5 0  0.100000000000416 5 0  0 4.899999999999999 0  0 4.8 0  0 4.699999999999999 0  0 4.6 0  0 4.499999999999999 0  0 4.399999999999999 0  0 4.299999999999999 0  0 4.199999999999998 0  0 4.099999999999999 0  0 3.999999999999999 0  0 3.899999999999999 0  0 3.799999999999999 0  0 3.699999999999998 0  0 3.599999999999999 0  0 3.499999999999999 0  0 3.399999999999999 0  0 3.299999999999999 0  0 3.199999999999998 0  0 3.099999999999999 0  0 2.999999999999999 0  0 2.899999999999999 0  0 2.799999999999999 0  0 2.699999999999999 0  0 2.599999999999999 0  0 2.5 0  0 2.399999999999999 0  0 2.299999999999999 0  0 2.199999999999999 0  0 2.1 0  0 2 0  0 1.899999999999999 0  0 1.799999999999999 0  0 1.699999999999999 0  0 1.599999999999999 0  0 1.5 0  0 1.399999999999999 0  0 1.299999999999999 0  0 1.199999999999999 0  0 1.1 0  0 0.9999999999999991 0  0 0.8999999999999995 0  0 0.7999999999999998 0  0 0.7000000000000002 0  0 0.5999999999999996 0  0 0.4999999999999991 0  0 0.3999999999999995 0  0 0.3000000000000007 0  0 0.1999999999999993 0  0 0.09999999999999964 0  0.6166569079913358 2.492277433160826 0  0.496804750005887 0.5479593764091243 0  0.5000000000000001 3.249999999999996 0  0.5010746240977132 4.146233959879961 0  1.15284373704454 2.508044505059064 0  0.5115316434189965 1.955545969082757 0  0.4999999999999211 1.349999999999999 0  0.4689171957673295 3.679717700049328 0  0.5612906571832685 4.583387229041095 0  1.571380248656294 2.43209333797878 0  0.4137140166874343 2.842788829011612 0  0.5924999999992734 0.9499999999993549 0  0.3530983922827606 2.277151253345766 0  0.3374999999999892 1.65000000000002 0  0.6755701284515059 1.666012036452857 0  0.7199661008857956 2.178412873198308 0  0.7334525640603837 2.809285576954712 0  0.3169326937911943 0.8062495868452884 0  0.3138857644565878 4.404201202807377 0  1.409460640835247 2.684430832001214 0  0.6887829815303428 3.902565963060691 0  0.6887829815303437 3.49743403693931 0  0.3083333333329294 0.3083333333329091 0  0.6836117544982274 0.312527457707179 0  0.3168915343039068 1.103810255435239 0  0.3022648077978692 2.555831328112146 0  1.699661159477641 2.699661159477642 0  0.3119190378227792 4.685290485878375 0  0.2857741186203023 3.950276087647296 0  0.2901796187683303 3.455359237536657 0  0.7185169821104359 4.329943392965225 0  1.329943392965171 2.281483017889551 0  0.723334373514972 3.086114578383237 0  0.8872939267661155 2.418951697643693 0  0.2683606383900753 3.107323129784811 0  0.7213259925957727 0.709299358069827 0  0.7248933848217622 1.191311282739447 0  0.9946254212153881 2.725887626364616 0  0.2534599397489012 2.044779020535383 0  0.2472238456272076 1.409843650950396 0  0.7466779594322671 1.891779594322711 0  0.751445254703026 4.751445254703024 0  1.751445254703023 2.248554745296977 0  0.2308928978487501 0.5537472873885254 0  1.08084306636788 2.246658930824796 0  0.7618726449950816 1.428238687173948 0  0.2386599654867296 4.176198813049547 0  0.2277655772754102 3.726664793307169 0  0.7721651484755335 4.113350253753182 0  0.7651749878558429 3.697580220958253 0  0.7656850901336474 3.299617602969102 0  0.4980799523915615 4.792356177625049 0  1.776143433203817 2.501327251062086 0  1.208880242020366 2.780272536786154 0  0.7911996774911533 4.53781383416655 0  1.542032468257247 2.216473886475725 0  0.7821379364211358 0.4969347839607502 0  0.5159796121199893 3.035942476666499 0  0.1994782516945909 2.77487521870957 0  0.2121527327795772 1.820534480974185 0  0.4961068761097068 0.2091473007262267 0  0.8212076849290986 2.630353036209751 0  0.5799159337228276 2.696151511257179 0  0.521656415787208 1.134485020795658 0  0.5198027681168929 0.7515845938922632 0  0.5314469083329 2.149920708093939 0  0.8022340879252141 0.949830582795168 0  0.5153738125904214 4.366355293244797 0  1.369864008384514 2.483509168319498 0  0.493575298272567 3.951867463619321 0  0.4920800561363075 3.451776843677214 0  0.1993224400966551 3.276384038573164 0  0.2040352237160636 2.400557997609325 0  0.504974575031962 1.751372233424674 0  0.499694528062418 1.552255000835086 0  0.1883367598055906 0.9438245084748886 0  0.1955706745794366 4.52834806507854 0  1.537127505356749 2.822707438948337 0  0.4347408457716787 2.442047619826679 0  0.9025073455677252 2.163749048054409 0  0.1773846193758333 1.247310083483254 0  0.1790840974615431 2.196648468506937 0  0.4241221003595179 0.9580937949419669 0  0.5742095764754795 2.324790710904777 0  0.1810593287337392 0.1648759332410678 0  0.830532350559559 0.1714616318750705 0  0.1799849931748815 2.936783687129475 0  0.1700601135178742 1.60121319242071 0  1.834470454079937 2.829637832875926 0  0.1703621671240551 4.83447045408015 0  0.829990552477618 1.736728469669415 0  0.3976185944449355 4.553236496558402 0  1.555161286389273 2.597039871453049 0  0.8411335884160621 2.955436961449523 0  0.6558334436081007 2.021696625357631 0  0.9866801805488914 2.554042320868289 0  0.4842405954457978 0.3674248026875673 0  0.1764810578689407 0.6996979327130011 0  0.5695354616787965 2.867647040045057 0  0.627187487409925 3.659501677082119 0  0.1696270647651137 0.3969694240763386 0  0.1588761645418826 3.579667620980887 0  0.3504882684591691 1.27320675399182 0  0.1613150679413317 4.323270191935268 0  0.8439697987258331 3.850137374173121 0  0.8582592809978382 3.556895103851285 0  1.2205291243602 2.169320339907971 0  0.8274853269315643 1.578104600362255 0  1.35480687481049 2.843927765640049 0  0.3677577894563876 1.843336837909973 0  0.3739468553634951 0.650971017289567 0  0.8175350952416559 2.032763453059245 0  1.255052217924463 2.621284633706947 0  0.6275139014702615 3.348445849128012 0  0.3500097682353719 0.1540209779916574 0  0.8470720720723232 0.3499999999992615 0  0.6516218900422024 0.1543745010121346 0  0.1570362925186822 4.034940931583384 0  0.6259846398323782 4.050387381032598 0  0.6243837498547334 0.4550390732635957 0  0.3764337664925781 4.252429701173535 0  0.3638240662285239 4.845889022715784 0  1.841058165929382 2.650192415774816 0  0.3538129642253492 3.310506091581767 0  0.3972635403128369 2.692091228217206 0  0.1493546974812203 3.864275696990799 0  0.8353411562925317 1.295894841996498 0  0.8510640038578493 4.24376876336904 0  0.3274183905250344 3.60709353923235 0  0.5690599951287177 3.803379429947107 0  0.3608465922823166 4.079737353610348 0  0.1464953658605303 2.61946161625165 0  0.8522365706696342 1.101349250004825 0  0.8462743532452005 0.8012074197151465 0  1.200278576701711 2.350961992006298 0  0.7326508832134601 2.394973662719556 0  0.6648495127067672 1.330201720826574 0  0.6421476239135478 4.851671120026346 0  1.851998954991891 2.359839578227697 0  1.041233083983184 2.39820467647697 0  0.8526824909154477 3.164884108363255 0  0.3803758752537028 2.126429281492964 0  0.6420376057736918 4.200165882518018 0  0.8501088759525246 4.401734271500779 0  1.398058673633662 2.147688933973308 0  0.8545605983512565 0.6343835319818829 0  1.072584152252426 2.853228937916825 0  0.8462674517070675 4.851971641280215 0  1.853403041422536 2.15097879283758 0  0.3930760976266651 3.836742518240063 0  0.1459746256495623 1.094533214558924 0  0.1449604950589468 3.41641374300675 0  0.360147239891959 1.507070948822289 0  0.1371791188132176 3.14627243933882 0  0.1373781948221472 1.948699496915061 0  0.8787091687571863 2.813528399808599 0  0.640346663916172 3.202454813230568 0  0.1447898426935465 4.687821488540191 0  1.681222862898315 2.858606263227755 0  0.6057151088165942 1.858748550906064 0  0.6959087423316198 1.05023956637574 0  0.6929156491439609 0.8504350871602226 0  0.3804448021156934 2.991689533004409 0  0.4069998378428982 3.136829475620725 0  0.6221516319980132 1.461574324140038 0  0.8595221684437686 4.671970471025065 0  1.655041305862432 2.135199824735708 0  0.8397218722524009 3.992237826182404 0  0.6648391028671355 4.465773104071535 0  1.462522756387578 2.335702451268775 0  1.107872485384334 2.648667416202137 0  0.6412014890654342 0.5971222632485688 0  0.8285592833177335 2.286311487886619 0  0.4769010664620999 2.574488224117733 0  0.3384926303571551 0.445684366822149 0  0.622529668465069 4.711696333659297 0  1.70347020696268 2.379656531207025 0  0.673413754958227 2.634174081826437 0  0.8424185362726981 3.41410212582428 0  0.1496314029302428 1.699903720635713 0  0.6712113209446312 2.961657242108266 0  0.1318402597280083 0.83835
[...]
<PointData  Vectors="f_15"> 
<DataArray  type="Float64"  Name="f_15"  NumberOfComponents="3" format="ascii">-2.1367007825196059e-07 4.9298369867678963e-07 0.0000000000000000e+00  2.1527191136139046e-07 1.2392965635403256e-07 0.0000000000000000e+00  4.2801842261502616e-07 -6.7412055534057697e-08 0.0000000000000000e+00  -3.1041114585897212e-08 -3.2690379313670563e-08 0.0000000000000000e+00  1.4017403189093841e-08 -2.2165680338530507e-08 0.0000000000000000e+00  -3.2701012551377926e-07 2.2916716198655572e-07 0.0000000000000000e+00  7.7060329771863192e-09 3.5420894596015598e-07 0.0000000000000000e+00  2.1414312328681834e-07 1.2028655517701461e-07 0.0000000000000000e+00  8.9808356805536876e-05 1.8640087526668164e-02 0.0000000000000000e+00  2.8111479868240798e-05 1.9626280858333234e-02 0.0000000000000000e+00  2.4359846242116917e-05 1.9762142064209096e-02 0.0000000000000000e+00  9.7684164806408346e-06 1.9792093661689325e-02 0.0000000000000000e+00  3.6309959266284670e-06 1.9805481595738115e-02 0.0000000000000000e+00  -4.6932924370931692e-07 1.9801301068766489e-02 0.0000000000000000e+00  -1.3200280044778178e-05 1.9786050986994246e-02 0.0000000000000000e+00  -1.7621063316132705e-05 1.9669732459201179e-02 0.0000000000000000e+00  -9.4045798553280777e-05 1.8696552969142369e-02 0.0000000000000000e+00  3.0016412498187121e-07 2.0713686264575398e-07 0.0000000000000000e+00  1.5614584887332414e-07 -3.6806374723816736e-07 0.0000000000000000e+00  1.8853615688593365e-07 -3.1129429579395087e-07 0.0000000000000000e+00  -1.5246526654293639e-08 3.1433882088445603e-07 0.0000000000000000e+00  -9.0254372529811930e-09 -5.2469376639289970e-07 0.0000000000000000e+00  -6.6880632835569498e-08 -1.5976012662977273e-07 0.0000000000000000e+00  -7.8914408284555185e-08 6.3133340712478484e-08 0.0000000000000000e+00  -7.4557512994498381e-08 -2.0214692451568695e-07 0.0000000000000000e+00  -1.1677244461566142e-07 -4.2861369384063152e-08 0.0000000000000000e+00  1.7094347714322911e-08 6.7338584171258274e-08 0.0000000000000000e+00  8.9150598274076780e-08 7.1737904226161449e-09 0.0000000000000000e+00  9.0369179831377761e-08 -5.2521269504029173e-08 0.0000000000000000e+00  8.3721693782201083e-08 6.3283325310646024e-08 0.0000000000000000e+00  8.7143784881100202e-08 -2.2616707418202637e-07 0.0000000000000000e+00  4.6424905079677756e-08 -2.4099173888455227e-07 0.0000000000000000e+00  -2.8246734543310996e-08 -2.4789011918071600e-08 0.0000000000000000e+00  -1.5004477018391629e-07 -2.0802232057784466e-07 0.0000000000000000e+00  -1.9799438263388219e-07 1.8883574017020137e-08 0.0000000000000000e+00  -1.6100478129515658e-08 -1.1650823303568081e-07 0.0000000000000000e+00  1.3773335140278734e-07 -3.1795442957121576e-07 0.0000000000000000e+00  -3.7213552374407801e-07 -5.1065687490370304e-07 0.0000000000000000e+00  -9.9508648047127843e-08 -1.3685638607536665e-07 0.0000000000000000e+00  -1.4215713971694819e-07 -1.1353588301122193e-07 0.0000000000000000e+00  -9.0391176562335044e-08 -6.4625312446382927e-08 0.0000000000000000e+00  -5.8147575755476222e-08 -3.9887187279682413e-08 0.0000000000000000e+00  -4.6921902681411447e-08 -3.1823473545100405e-08 0.0000000000000000e+00  -4.7090325008882333e-08 -3.2427918063226355e-08 0.0000000000000000e+00  -1.5326788651738332e-08 -1.9017286051881763e-08 0.0000000000000000e+00  -4.1198615871471704e-09 -1.0615161720081510e-08 0.0000000000000000e+00  -1.9523109532334542e-08 -4.1934353130468942e-08 0.0000000000000000e+00  -7.7474607205686279e-09 -4.7376129655202807e-08 0.0000000000000000e+00  -3.2305204978736994e-09 -4.6270371840077271e-08 0.0000000000000000e+00  -1.4807331266514581e-09 -5.1035254570384061e-08 0.0000000000000000e+00  5.8708147069330290e-09 -4.6339578409911624e-08 0.0000000000000000e+00  3.6797795516519067e-09 -3.6127480748681295e-08 0.0000000000000000e+00  1.4568295535313609e-08 -4.5603967219323494e-08 0.0000000000000000e+00  1.6957434860876070e-08 -2.9318924252126227e-08 0.0000000000000000e+00  2.3314591402113797e-08 -2.6735918828245653e-08 0.0000000000000000e+00  4.3441968447797324e-08 -3.3942509061842994e-08 0.0000000000000000e+00  5.2432403669297372e-08 -3.8403095085762083e-08 0.0000000000000000e+00  5.2568797289289800e-08 -3.8942984704402646e-08 0.0000000000000000e+00  1.0860976990568737e-07 -5.5733861253933595e-08 0.0000000000000000e+00  9.3257016999127326e-08 -4.0211498013396509e-08 0.0000000000000000e+00  9.5314960074728123e-08 -1.1322913441507747e-07 0.0000000000000000e+00  2.7119971030753982e-07 -4.4600421376137757e-07 0.0000000000000000e+00  -3.2264804307182812e-07 4.1553096018971307e-08 0.0000000000000000e+00  2.1570575965743197e-07 2.9315153610909251e-07 0.0000000000000000e+00  2.7978203130018921e-07 -2.3197215808262804e-07 0.0000000000000000e+00  1.9031800874840030e-07 -1.6045160265529605e-07 0.0000000000000000e+00  -3.6217934138473561e-08 2.5823875620726843e-08 0.0000000000000000e+00  3.8915985713030847e-08 -1.5990807879857178e-07 0.0000000000000000e+00  3.5694287411260142e-08 -1.0942191066062665e-07 0.0000000000000000e+00  1.8603955073858687e-08 -5.0016095342998782e-08 0.0000000000000000e+00  5.8526502261869737e-09 1.5146396950275705e-08 0.0000000000000000e+00  -5.6953816781631974e-08 6.3588072224434717e-08 0.0000000000000000e+00  6.8324779290945193e-08 -2.5391231866893349e-07 0.0000000000000000e+00  -7.5779400614735963e-08 6.1193127036435223e-08 0.0000000000000000e+00  5.0404276251224653e-08 -1.0752434022808394e-07 0.0000000000000000e+00  -4.7649709893625645e-08 -8.4554597625230169e-09 0.0000000000000000e+00  9.1855349598937705e-08 5.2010935502536307e-08 0.0000000000000000e+00  -6.8663744764733952e-08 -8.3199233151793731e-08 0.0000000000000000e+00  5.8289679914299408e-08 -2.4705928045499796e-07 0.0000000000000000e+00  -8.1084352252321050e-08 -1.2091857095327931e-07 0.0000000000000000e+00  2.0716788464652660e-08 -2.1396060390202421e-07 0.0000000000000000e+00  -8.0401812469883852e-08 4.3527165770937552e-08 0.0000000000000000e+00  -2.1856606505570283e-05 1.8955637299579203e-02 0.0000000000000000e+00  -1.5316927864491929e-05 1.9745701122019104e-02 0.0000000000000000e+00  -8.7686958066188785e-06 1.9786852183190810e-02 0.0000000000000000e+00  -4.3420006777409488e-06 1.9804191268870217e-02 0.0000000000000000e+00  -7.7107384262892507e-06 1.9801878464267800e-02 0.0000000000000000e+00  -1.1945714656896033e-05 1.9787149544127330e-02 0.0000000000000000e+00  -2.4885406774060097e-05 1.9753895257639806e-02 0.0000000000000000e+00  -3.0920515181672491e-05 1.9620472827713099e-02 0.0000000000000000e+00  -7.4626986117421078e-05 1.8712324761938071e-02 0.0000000000000000e+00  3.2209034179476441e-07 -1.3109605150166169e-08 0.0000000000000000e+00  1.9187546846299495e-07 -1.5955373980277329e-07 0.0000000000000000e+00  1.5526543357056734e-07 2.6664847581503109e-08 0.0000000000000000e+00  1.1686827138843310e-07 -1.1863333599910704e-07 0.0000000000000000e+00  2.0817631156376102e-09 -2.0093588522413188e-07 0.0000000000000000e+00  -3.6950421263997831e-08 -2.9505295273727860e-07 0.0000000000000000e+00  -6.1838201106673492e-08 2.6320624833024892e-07 0.0000000000000000e+00  -1.9750003519414535e-08 -1.4570860020277654e-07 0.0000000000000000e+00  3.0964257285513721e-08 6.9247458671409988e-08 0.0000000000000000e+00  -9.9203561341081019e-08 -7.3047818574182361e-08 0.0000000000000000e+00  1.0810648246912577e-07 -6.9192946824301593e-08 0.0000000000000000e+00  -1.1740398746885875e-08 -1.1413787984067668e-07 0.0000000000000000e+00  -2.8871590989327018e-08 2.1239533928577494e-08 0.0000000000000000e+00  -1.6881822492196248e-07 1.4651530418517901e-07 0.0000000000000000e+00  -1.8993204928836946e-09 7.4158069898832976e-08 0.0000000000000000e+00  1.4607176189050579e-07 7.9766776219053239e-08 0.0000000000000000e+00  1.1790804361901649e-08 -8.9008790283013447e-08 0.0000000000000000e+00  5.4160944514553828e-08 -6.6824809630625333e-08 0.0000000000000000e+00  -1.0821286193716469e-07 -5.9888926019486162e-08 0.0000000000000000e+00  4.8088773334564407e-09 -1.2635004978512758e-07 0.0000000000000000e+00  -7.6136859551163896e-08 6.7860187999444790e-08 0.0000000000000000e+00  4.1938658344644319e-09 -5.2123888964690206e-08 0.0000000000000000e+00  2.7738257692334101e-08 -5.5907956830553735e-08 0.0000000000000000e+00  -3.5476508540476625e-08 -2.0964919533857052e-07 0.0000000000000000e+00  -2.0180317972670090e-08 1.0119825968503929e-07 0.0000000000000000e+00  -2.4617440631712865e-09 7.1531235047747088e-08 0.0000000000000000e+00  5.2402046777852176e-08 -1.1302025938738017e-07 0.0000000000000000e+00  5.8609209093571130e-08 -6.4110682765867069e-08 0.0000000000000000e+00  -8.6062764249112521e-09 -6.4345755623578903e-09 0.0000000000000000e+00  1.0410497172939916e-07 1.4507273542145144e-07 0.0000000000000000e+00  2.3994872361721532e-08 -8.9815220257604747e-08 0.0000000000000000e+00  1.3777992040627601e-08 5.1428923733292167e-08 0.0000000000000000e+00  -9.2076586421568515e-08 -6.1099532888561842e-08 0.0000000000000000e+00  -2.6800318774054697e-08 5.0215218861584007e-08 0.0000000000000000e+00  -2.4918488774010798e-08 7.5429110558437899e-08 0.0000000000000000e+00  -8.2402869953964042e-09 -3.5205611210292554e-07 0.0000000000000000e+00  6.8734855636422205e-08 -1.4044005714978793e-07 0.0000000000000000e+00  -2.5642662499309655e-09 -1.8993038981576821e-07 0.0000000000000000e+00  9.2873723808836611e-09 5.2109847982841587e-08 0.0000000000000000e+00  -7.7738503344786709e-08 -1.4274331497087734e-07 0.0000000000000000e+00  6.4809678376313094e-08 -1.8506008347346625e-07 0.0000000000000000e+00  1.9899009409696950e-08 4.9924052793336717e-08 0.0000000000000000e+00  1.0749498744822240e-07 7.4816223222394629e-09 0.0000000000000000e+00  -3.5102021241598455e-09 -4.3270949789110231e-08 0.0000000000000000e+00  -7.3545401475896475e-08 1.8283395300237931e-08 0.0000000000000000e+00  -1.4934649502018057e-07 -9.5800527764628027e-08 0.0000000000000000e+00  -9.7077490492079165e-08 -2.0242752195004375e-07 0.0000000000000000e+00  -1.5477309189370340e-07 -5.4393343081286907e-07 0.0000000000000000e+00  -1.9466451935870694e-07 1.3583740918103127e-07 0.0000000000000000e+00  5.7822915988937352e-05 1.5810718911147867e-02 0.0000000000000000e+00  3.4351308550794483e-05 1.9833909337923061e-02 0.0000000000000000e+00  -1.0479295021977952e-03 1.9408070195035199e-02 0.0000000000000000e+00  -6.1925739243438369e-05 1.9834762716647400e-02 0.0000000000000000e+00  -1.7280895795587895e-04 7.4287458135796737e-03 0.0000000000000000e+00  1.5193890005430033e-03 1.8606211818193670e-02 0.0000000000000000e+00  3.0862703135654102e-04 1.9768919655651793e-02 0.0000000000000000e+00  -2.9536575972056170e-04 1.9779954972408351e-02 0.0000000000000000e+00  -2.2102450194753434e-05 1.9839837072398177e-02 0.0000000000000000e+00  4.8555366051161259e-04 2.1949471200639606e-03 0.0000000000000000e+00  -1.1295059151444789e-03 1.7685089613445056e-02 0.0000000000000000e+00  8.8580772919503325e-05 1.9822379938662964e-02 0.0000000000000000e+00  6.1933676864955737e-04 1.7414810830286762e-02 0.0000000000000000e+00  5.9046160420403774e-04 1.9277217625207947e-02 0.0000000000000000e+00  1.0139078016886884e-03 2.0083723069772963e-02 0.0000000000000000e+00  3.0858794792601252e-03 1.6723287912591339e-02 0.0000000000000000e+00  -3.1581059174775744e-03 1.6458405641452199e-02 0.0000000000000000e+00  3.3886690937529759e-05 1.9749756081353226e-02 0.0000000000000000e+00  -2.1448741190412169e-05 1.9794660673586095e-02 0.0000000000000000e+00  -1.8292527593859096e-03 3.0717096511643266e-03 0.0000000000000000e+00  -1.1477858315197433e-04 1.9893802908092572e-02 0.0000000000000000e+00  -5.3420604867984332e-04 2.0044272817818537e-02 0.0000000000000000e+00  3.8527254386174024e-05 1.9785427836672975e-02 0.0000000000000000e+00  -4.2687167839460976e-06 1.9806501732668524e-02 0.0000000000000000e+00  1.2005227586949593e-04 1.9697938307944796e-02 0.0000000000000000e+00  -1.2979748420515928e-04 1.7260337140227407e-02 0.0000000000000000e+00  -7.2381387511573695e-04 1.3721843225332131e-03 0.0000000000000000e+00  -4.8407216955482780e-05 1.9785047196973143e-02 0.0000000000000000e+00  -9.6586343758998494e-05 1.9712504857292295e-02 0.0000000000000000e+00  -3.8058327197317655e-04 1.9381330496035357e-02 0.0000000000000000e+00  -3.1455202243201932e-05 1.9823112473588138e-02 0.0000000000000000e+00  2.6768468357569273e-03 3.9121889882174328e-03 0.0000000000000000e+00  -2.5976318062430693e-03 1.9737049933290011e-02 0.0000000000000000e+00  1.3309384116274158e-03 1.2569885958292637e-02 0.0000000000000000e+00  -6.3209831319570276e-04 1.8664883304751950e-02 0.0000000000000000e+00  5.5690767453160196e-05 1.9804728585759740e-02 0.0000000000000000e+00  1.2962718893683381e-04 1.9899430881995205e-02 0.0000000000000000e+00  -4.0883141317155751e-03 1.0916613604829723e-02 0.0000000000000000e+00  6.3712910326883083e-04 1.8241619204949423e-02 0.0000000000000000e+00  2.2466629755263937e-04 1.9347873528840136e-02 0.0000000000000000e+00  2.7193650510283596e-03 2.0232692216061866e-02 0.0000000000000000e+00  6.5506212453547436e-06 1.9786222842450477e-02 0.0000000000000000e+00  6.9252924693566126e-04 1.0663142373410870e-03 0.0000000000000000e+00  2.1770338847133288e-05 1.9634063696650123e-02 0.0000000000000000e+00  5.9547859245446064e-03 8.6740840144696081e-03 0.0000000000000000e+00  3.1249093911795838e-04 1.9971573509864057e-02 0.0000000000000000e+00  -2.5494735509774261e-05 1.9654766323009488e-02 0.0000000000000000e+00  -1.5107225597647944e-04 1.9431964793702808e-02 0.0000000000000000e+00  -4.6873781457051788e-05 1.9759852957434057e-02 0.0000000000000000e+00  -2.3532409207681701e-04 1.9905611870535429e-02 0.0000000000000000e+00  -1.1824098157723446e-03 2.0376694206184275e-02 0.0000000000000000e+00  -1.8274343085603040e-05 1.9815087302605519e-02 0.0000000000000000e+00  -3.1199112611312288e-05 1.4458764564302114e-03 0.0000000000000000e+00  -4.9971443621351129e-03 5.4644497097472346e-03 0.0000000000000000e+00  1.0773590507815170e-05 1.9611023668463699e-02 0.0000000000000000e+00  1.6591133188943337e-03 1.5814291787747731e-03 0.0000000000000000e+00  3.0484773770393470e-05 1.9649071577643888e-02 0.0000000000000000e+00  -1.5881632940347962e-03 1.8585559340385763e-02 0.0000000000000000e+00  -3.2644672424614709e-04 1.7146314479598652e-02 0.0000000000000000e+00  4.3454453905557723e-04 1.8613703544651344e-02 0.0000000000000000e+00  1.2178130849732644e-05 1.9815408823814450e-02 0.0000000000000000e+00  -2.0468403583389309e-03 1.3571915943269621e-02 0.0000000000000000e+00  -1.3505717210010959e-03 1.6506705168301900e-02 0.0000000000000000e+00  1.5541211418294772e-04 1.9804124902382193e-02 0.0000000000000000e+00  5.3934778820522622e-05 1.9818667159120004e-02 0.0000000000000000e+00  1.7206492739757376e-03 1.7606412766530691e-02 0.0000000000000000e+00  9.5913314625200270e-05 1.9729107320854845e-02 0.0000000000000000e+00  -3.5679024153783027e-05 1.9844753677866058e-02 0.0000000000000000e+00  1.9928923521981794e-04 4.4206222765504483e-03 0.0000000000000000e+00  -1.1820608090554664e-04 1.9829980060705087e-02 0.0000000000000000e+00  -6.2640533175811806e-04 1.9678024850516559e-02 0.0000000000000000e+00  -3.8644535994364056e-04 1.8786774764365390e-02 0.0000000000000000e+00  1.4761828772599518e-04 1.7378423813240684e-02 0.0000000000000000e+00  1.0147426147894662e-03 1.9449276741692657e-02 0.0000000000000000e+00  6.5626797502314391e-04 1.9707104783103585e-02 0.0000000000000000e+00  3.2362847067724428e-05 1.9231306917130958e-02 0.0000000000000000e+00  -5.3418936456772108e-05 1.8956239419572248e-02 0.0000000000000000e+00  -1.9114894205466955e-03 1.3628475026780434e-03 0.0000000000000000e+00  2.3339188857214721e-04 1.6858583335422558e-02 0.0000000000000000e+00  6.3643392314471558e-03 1.4507177614601281e-02 0.0000000000000000e+00  7.8860835706217377e-05 1.8680841110168468e-02 0.0000000000000000e+00  2.9269068985315530e-04 1.7164549051199036e-02 0.0000000000000000e+00  8.6428917271676916e-05 1.9776948426943067e-02 0.0000000000000000e+00  1.2183111093725656e-03 1.6352678840504797e-02 0.0000000000000000e+00  6.8354136941448337e-05 1.9066551935536722e-02 0.0000000000000000e+00  -6.1157548725568277e-05 1.8896891491151563e-02 0.0000000000000000e+00  -3.2584113182603560e-04 1.7339386889683610e-02 0.0000000000000000e+00  2.7364507348889719e-04 1.8565205242740364e-02 0.0000000000000000e+00  -5.2522311288570090e-04 6.5699150458808735e-04 0.0000000000000000e+00  -9.8752820666248831e-05 1.8921922184734052e-02 0.0000000000000000e+00  1.3296053095033895e-03 2.0051000942777886e-02 0.0000000000000000e+00  -3.4597631739992256e-05 1.9837326809610745e-02 0.0000000000000000e+00  -6.8166311062141610e-04 2.2788138270067749e-03 0.0000000000000000e+00  -5.8074109127222934e-03 1.8150598743772339e-02 0.0000000000000000e+00  2.7002437791365597e-03 1.8480794423195460e-02 0.0000000000000000e+00  -8.2957127746879011e-04 1.0628162394042677e-02 0.0000000000000000e+00  2.5101218496099234e-05 1.9830454006147670e-02 0.0000000000000000e+00  -4.7502986177509006e-05 1.8887626681565638e-02 0.0000000000000000e+00  -1.9067321336210378e-03 1.7653887545911379e-02 0.0000000000000000e+00  -3.2488362360084662e-04 1.9951450800426034e-02 0.0000000000000000e+00  6.0516910216539769e-05 1.8861863275779836e-02 0.0000000000000000e+00  -1.1924147635509566e-04 1.8599252498935182e-02 0.0000000000000000e+00  2.2451412604303935e-04 1.9637159011547882e-02 0.0000000000000000e+00  4.2495783432173571e-05 1.8533851530587432e-02 0.0000000000000000e+00  -5.3649652023982014e-05 1.8596624677834871e-02 0.0000000000000000e+00  -2.3381836757401783e-04 1.8708727212095731e-02 0.0000000000000000e+00  5.5077485480969470e-03 3.9414967441386891e-03 0.0000000000000000e+00  5.0424922743964146e-04 1.9549899210981981e-02 0.0000000000000000e+00  -3.5681326221518208e-03 2.2184162051413895e-03 0.0000000000000000e+00  8.4494440387780406e-04 1.8912722311463029e-02 0.0000000000000000e+00  2.6374246582061107e-05 1.9809404788915602e-02 0.0000000000000000e+00  5.3352690848744331e-03 1.8323031304687803e-02 0.0000000000000000e+00  -1.7782338137183257e-03 5.3630427021406210e-03 0.0000000000000000e+00  -9.7318477340823631e-04 1.9880928781297658e-02 0.0000000000000000e+00  2.8624684869052741e-05 1.9775473806594609e-02 0.0000000000000000e+00  -3.8441960061286587e-05 1.8557404750763194e-02 0.0000000000000000e+00  -1.0576677673600836e-05 1.9794888308485303e-02 0.0000000000000000e+00  -1.3221224178965489e-05 1.8506225705043011e-02 0.0000000000000000e+00  -7.6747679145492925e-05 1.9863016682828579e-02 0.0000000000000000e+00  2.8336987335063999e-05 1.9845000638800951e-02 0.0000000000000000e+00  -3.2928923245959861e-05 1.9810508276687379e-02 0.0000000000000000e+00  -3.6335494688666973e-05 1.9772916936337231e-02 0.0000000000000000e+00  -2.2322117856227666e-04 1.0558028312410571e-03 0.0000000000000000e+00  -6.4749463275053890e-04 1.9256832783722984e-02 0.0000000000000000e+00  -6.0766898301191146e-04 1.7292488755913556e-02 0.0000000000000000e+00  -9.5971266778565757e-05 1.8293150057708780e-02 0.0000000000000000e+00  9.0701998738984945e-05 1.9150044299865918e-02 0.0000000000000000e+00  -2.8087718271971110e-05 1.8560940297935855e-02 0.0000000000000000e+00  -2.8506394149764678e-04 1.9571221707438573e-02 0.0000000000000000e+00  -2.0425838220844826e-04 1.9882322490729357e-02 0.0000000000000000e+00  -6.6557324523972073e-05 1.9789554038313735e-02 0.0000000000000000e+00  -9.1593347444087866e-05 1.6632221107180788e-02 0.0000000000000000e+00  2.9717564698991100e-05 1.9071564018290348e-02 0.0000000000000000e+00  8.0787009506227048e-05 1.8834699596775389e-02 0.0000000000000000e+00  2.6122856013410943e-03 6.4269667290881476e-03 0.0000000000000000e+00  1.2623579424480189e-03 1.4824285245885509e-02 0.0000000000000000e+00  2.6733601896982291e-04 1.9936383188795592e-02 0.0000000000000000e+00  -2.7370048554458880e-06 1.9786214381481339e-02 0.0000000000000000e+00  2.2414383097222191e-04 1.0579615628150631e-03 0.0000000000000000e+00  1.9799363978392085e-03 9.4645672818364605e-03 0.0000000000000000e+00  -2.0013084399238801e-03 1.9598836829413512e-02 0.000000000000000