<?xml version="1.0"?>
<VTKFile type="UnstructuredGrid"  version="0.1"  >
<UnstructuredGrid>
<Piece  NumberOfPoints="853" NumberOfCells="1564">
<Points>
<DataArray  type="Float64"  NumberOfComponents="3"  format="ascii">0 0 0  1 0 0  1 2 0  2 2 0  2 3 0  1 3 0  1 5 0  0 5 0  0.09999999999981467 0 0  0.1999999999995579 0 0  0.2999999999992664 0 0  0.3999999999989749 0 0  0.4999999999986943 0 0  0.5999999999989468 0 0  0.69999999999921 0 0  0.7999999999994734 0 0  0.8999999999997368 0 0  1 0.0999999999997993 0  1 0.1999999999996293 0  1 0.2999999999994072 0  1 0.3999999999991157 0  1 0.4999999999988242 0  1 0.5999999999985328 0  1 0.6999999999982413 0  1 0.7999999999979498 0  1 0.8999999999976585 0  1 0.9999999999973885 0  1 1.09999999999763 0  1 1.199999999997894 0  1 1.299999999998157 0  1 1.39999999999842 0  1 1.499999999998683 0  1 1.599999999998947 0  1 1.69999999999921 0  1 1.799999999999474 0  1 1.899999999999737 0  1.1 2 0  1.2 2 0  1.3 2 0  1.4 2 0  1.5 2 0  1.6 2 0  1.7 2 0  1.8 2 0  1.9 2 0  2 2.1 0  2 2.2 0  2 2.299999999999999 0  2 2.399999999999999 0  2 2.5 0  2 2.6 0  2 2.7 0  2 2.8 0  2 2.9 0  1.9 3 0  1.8 3 0  1.7 3 0  1.6 3 0  1.5 3 0  1.4 3 0  1.3 3 0  1.2 3 0  1.1 3 0  1 3.1 0  1 3.2 0  1 3.299999999999999 0  1 3.399999999999999 0  1 3.499999999999999 0  1 3.599999999999999 0  1 3.699999999999999 0  1 3.799999999999999 0  1 3.899999999999999 0  1 4 0  1 4.1 0  1 4.199999999999999 0  1 4.3 0  1 4.399999999999999 0  1 4.5 0  1 4.6 0  1 4.699999999999999 0  1 4.8 0  1 4.899999999999999 0  0.8999999999995836 5 0  0.7999999999999998 5 0  0.7000000000006934 5 0  0.6000000000013869 5 0  0.5000000000020587 5 0  0.4000000000016644 5 0  0.3000000000012483 5 0  0.2000000000008322 5 0  0.100000000000416 5 0  0 4.899999999999999 0  0 4.8 0  0 4.699999999999999 0  0 4.6 0  0 4.499999999999999 0  0 4.399999999999999 0  0 4.299999999999999 0  0 4.199999999999998 0  0 4.099999999999999 0  0 3.999999999999999 0  0 3.899999999999999 0  0 3.799999999999999 0  0 3.699999999999998 0  0 3.599999999999999 0  0 3.499999999999999 0  0 3.399999999999999 0  0 3.299999999999999 0  0 3.199999999999998 0  0 3.099999999999999 0  0 2.999999999999999 0  0 2.899999999999999 0  0 2.799999999999999 0  0 2.699999999999999 0  0 2.599999999999999 0  0 2.5 0  0 2.399999999999999 0  0 2.299999999999999 0  0 2.199999999999999 0  0 2.1 0  0 2 0  0 1.899999999999999 0  0 1.799999999999999 0  0 1.699999999999999 0  0 1.599999999999999 0  0 1.5 0  0 1.399999999999999 0  0 1.299999999999999 0  0 1.199999999999999 0  0 1.1 0  0 0.9999999999999991 0  0 0.8999999999999995 0  0 0.7999999999999998 0  0 0.7000000000000002 0  0 0.5999999999999996 0  0 0.4999999999999991 0  0 0.3999999999999995 0  0 0.3000000000000007 0  0 0.1999999999999993 0  0 0.09999999999999964 0  0.6166569079913358 2.492277433160826 0  0.496804750005887 0.5479593764091243 0  0.5000000000000001 3.249999999999996 0  0.5010746240977132 4.146233959879961 0  1.15284373704454 2.508044505059064 0  0.5115316434189965 1.955545969082757 0  0.4999999999999211 1.349999999999999 0  0.4689171957673295 3.679717700049328 0  0.5612906571832685 4.583387229041095 0  1.571380248656294 2.43209333797878 0  0.4137140166874343 2.842788829011612 0  0.5924999999992734 0.9499999999993549 0  0.3530983922827606 2.277151253345766 0  0.3374999999999892 1.65000000000002 0  0.6755701284515059 1.666012036452857 0  0.7199661008857956 2.178412873198308 0  0.7334525640603837 2.809285576954712 0  0.3169326937911943 0.8062495868452884 0  0.3138857644565878 4.404201202807377 0  1.409460640835247 2.684430832001214 0  0.6887829815303428 3.902565963060691 0  0.6887829815303437 3.49743403693931 0  0.3083333333329294 0.3083333333329091 0  0.6836117544982274 0.312527457707179 0  0.3168915343039068 1.103810255435239 0  0.3022648077978692 2.555831328112146 0  1.699661159477641 2.699661159477642 0  0.3119190378227792 4.685290485878375 0  0.2857741186203023 3.950276087647296 0  0.2901796187683303 3.455359237536657 0  0.7185169821104359 4.329943392965225 0  1.329943392965171 2.281483017889551 0  0.723334373514972 3.086114578383237 0  0.8872939267661155 2.418951697643693 0  0.2683606383900753 3.107323129784811 0  0.7213259925957727 0.709299358069827 0  0.7248933848217622 1.191311282739447 0  0.9946254212153881 2.725887626364616 0  0.2534599397489012 2.044779020535383 0  0.2472238456272076 1.409843650950396 0  0.7466779594322671 1.891779594322711 0  0.751445254703026 4.751445254703024 0  1.751445254703023 2.248554745296977 0  0.2308928978487501 0.5537472873885254 0  1.08084306636788 2.246658930824796 0  0.7618726449950816 1.428238687173948 0  0.2386599654867296 4.176198813049547 0  0.2277655772754102 3.726664793307169 0  0.7721651484755335 4.113350253753182 0  0.7651749878558429 3.697580220958253 0  0.7656850901336474 3.299617602969102 0  0.4980799523915615 4.792356177625049 0  1.776143433203817 2.501327251062086 0  1.208880242020366 2.780272536786154 0  0.7911996774911533 4.53781383416655 0  1.542032468257247 2.216473886475725 0  0.7821379364211358 0.4969347839607502 0  0.5159796121199893 3.035942476666499 0  0.1994782516945909 2.77487521870957 0  0.2121527327795772 1.820534480974185 0  0.4961068761097068 0.2091473007262267 0  0.8212076849290986 2.630353036209751 0  0.5799159337228276 2.696151511257179 0  0.521656415787208 1.134485020795658 0  0.5198027681168929 0.7515845938922632 0  0.5314469083329 2.149920708093939 0  0.8022340879252141 0.949830582795168 0  0.5153738125904214 4.366355293244797 0  1.369864008384514 2.483509168319498 0  0.493575298272567 3.951867463619321 0  0.4920800561363075 3.451776843677214 0  0.1993224400966551 3.276384038573164 0  0.2040352237160636 2.400557997609325 0  0.504974575031962 1.751372233424674 0  0.499694528062418 1.552255000835086 0  0.1883367598055906 0.9438245084748886 0  0.1955706745794366 4.52834806507854 0  1.537127505356749 2.822707438948337 0  0.4347408457716787 2.442047619826679 0  0.9025073455677252 2.163749048054409 0  0.1773846193758333 1.247310083483254 0  0.1790840974615431 2.196648468506937 0  0.4241221003595179 0.9580937949419669 0  0.5742095764754795 2.324790710904777 0  0.1810593287337392 0.1648759332410678 0  0.830532350559559 0.1714616318750705 0  0.1799849931748815 2.936783687129475 0  0.1700601135178742 1.60121319242071 0  1.834470454079937 2.829637832875926 0  0.1703621671240551 4.83447045408015 0  0.829990552477618 1.736728469669415 0  0.3976185944449355 4.553236496558402 0  1.555161286389273 2.597039871453049 0  0.8411335884160621 2.955436961449523 0  0.6558334436081007 2.021696625357631 0  0.9866801805488914 2.554042320868289 0  0.4842405954457978 0.3674248026875673 0  0.1764810578689407 0.6996979327130011 0  0.5695354616787965 2.867647040045057 0  0.627187487409925 3.659501677082119 0  0.1696270647651137 0.3969694240763386 0  0.1588761645418826 3.579667620980887 0  0.3504882684591691 1.27320675399182 0  0.1613150679413317 4.323270191935268 0  0.8439697987258331 3.850137374173121 0  0.8582592809978382 3.556895103851285 0  1.2205291243602 2.169320339907971 0  0.8274853269315643 1.578104600362255 0  1.35480687481049 2.843927765640049 0  0.3677577894563876 1.843336837909973 0  0.3739468553634951 0.650971017289567 0  0.8175350952416559 2.032763453059245 0  1.255052217924463 2.621284633706947 0  0.6275139014702615 3.348445849128012 0  0.3500097682353719 0.1540209779916574 0  0.8470720720723232 0.3499999999992615 0  0.6516218900422024 0.1543745010121346 0  0.1570362925186822 4.034940931583384 0  0.6259846398323782 4.050387381032598 0  0.6243837498547334 0.4550390732635957 0  0.3764337664925781 4.252429701173535 0  0.3638240662285239 4.845889022715784 0  1.841058165929382 2.650192415774816 0  0.3538129642253492 3.310506091581767 0  0.3972635403128369 2.692091228217206 0  0.1493546974812203 3.864275696990799 0  0.8353411562925317 1.295894841996498 0  0.8510640038578493 4.24376876336904 0  0.3274183905250344 3.60709353923235 0  0.5690599951287177 3.803379429947107 0  0.3608465922823166 4.079737353610348 0  0.1464953658605303 2.61946161625165 0  0.8522365706696342 1.101349250004825 0  0.8462743532452005 0.8012074197151465 0  1.200278576701711 2.350961992006298 0  0.7326508832134601 2.394973662719556 0  0.6648495127067672 1.330201720826574 0  0.6421476239135478 4.851671120026346 0  1.851998954991891 2.359839578227697 0  1.041233083983184 2.39820467647697 0  0.8526824909154477 3.164884108363255 0  0.3803758752537028 2.126429281492964 0  0.6420376057736918 4.200165882518018 0  0.8501088759525246 4.401734271500779 0  1.398058673633662 2.147688933973308 0  0.8545605983512565 0.6343835319818829 0  1.072584152252426 2.853228937916825 0  0.8462674517070675 4.851971641280215 0  1.853403041422536 2.15097879283758 0  0.3930760976266651 3.836742518240063 0  0.1459746256495623 1.094533214558924 0  0.1449604950589468 3.41641374300675 0  0.360147239891959 1.507070948822289 0  0.1371791188132176 3.14627243933882 0  0.1373781948221472 1.948699496915061 0  0.8787091687571863 2.813528399808599 0  0.640346663916172 3.202454813230568 0  0.1447898426935465 4.687821488540191 0  1.681222862898315 2.858606263227755 0  0.6057151088165942 1.858748550906064 0  0.6959087423316198 1.05023956637574 0  0.6929156491439609 0.8504350871602226 0  0.3804448021156934 2.991689533004409 0  0.4069998378428982 3.136829475620725 0  0.6221516319980132 1.461574324140038 0  0.8595221684437686 4.671970471025065 0  1.655041305862432 2.135199824735708 0  0.8397218722524009 3.992237826182404 0  0.6648391028671355 4.465773104071535 0  1.462522756387578 2.335702451268775 0  1.107872485384334 2.648667416202137 0  0.6412014890654342 0.5971222632485688 0  0.8285592833177335 2.286311487886619 0  0.4769010664620999 2.574488224117733 0  0.3384926303571551 0.445684366822149 0  0.622529668465069 4.711696333659297 0  1.70347020696268 2.379656531207025 0  0.673413754958227 2.634174081826437 0  0.8424185362726981 3.41410212582428 0  0.1496314029302428 1.699903720635713 0  0.6712113209446312 2.961657242108266 0  0.1318402597280083 0.83835
[...]
<PointData  Vectors="f_15"> 
<DataArray  type="Float64"  Name="f_15"  NumberOfComponents="3" format="ascii">-1.8935656845857230e-07 4.8597791374178086e-07 0.0000000000000000e+00  2.9692181760000840e-07 1.7487513462770575e-07 0.0000000000000000e+00  -1.9144103719350148e-08 1.2022755409208384e-07 0.0000000000000000e+00  -2.6686106047039874e-08 -2.7684139487787477e-08 0.0000000000000000e+00  1.5184820646671260e-08 -2.0953262537122597e-08 0.0000000000000000e+00  2.0526056960424077e-07 2.9415886044687375e-07 0.0000000000000000e+00  -7.8583957425703725e-08 3.0838253642187625e-07 0.0000000000000000e+00  2.5773484198626325e-07 1.4087240955476859e-07 0.0000000000000000e+00  7.1019691302895183e-05 1.3963048488844261e-02 0.0000000000000000e+00  2.2382192928429766e-05 1.4714614707542786e-02 0.0000000000000000e+00  1.9190100182851514e-05 1.4820206671965069e-02 0.0000000000000000e+00  7.6171579661528842e-06 1.4843373518770821e-02 0.0000000000000000e+00  2.8028311007294748e-06 1.4853538803985031e-02 0.0000000000000000e+00  -5.0610530075586951e-07 1.4850765737416543e-02 0.0000000000000000e+00  -1.0698345240396380e-05 1.4838474564827757e-02 0.0000000000000000e+00  -1.4246102871886704e-05 1.4747756382963724e-02 0.0000000000000000e+00  -7.3653785833323050e-05 1.4007105797505248e-02 0.0000000000000000e+00  1.8539259259538245e-07 1.0211827055415758e-07 0.0000000000000000e+00  3.5735983284133309e-07 -1.9558758011238002e-07 0.0000000000000000e+00  -1.4877565888883036e-07 -5.1160223154738207e-07 0.0000000000000000e+00  8.8646245999729893e-08 2.1106230981607384e-07 0.0000000000000000e+00  -5.2449733204792722e-08 -2.3686105627204452e-07 0.0000000000000000e+00  1.6737896902933299e-07 -5.8319852618284131e-07 0.0000000000000000e+00  -1.0526523981514683e-07 7.2008888574664378e-08 0.0000000000000000e+00  -1.9549945749338823e-07 -1.1757078589626567e-07 0.0000000000000000e+00  4.5773473331567577e-08 -1.1030471079970441e-07 0.0000000000000000e+00  -2.8353009332220565e-08 3.0439574577326476e-08 0.0000000000000000e+00  6.9565814410804576e-08 3.0395423109272254e-08 0.0000000000000000e+00  5.9464425406292623e-08 -7.5577999714450202e-08 0.0000000000000000e+00  1.8516308925739895e-07 4.5644814924856273e-08 0.0000000000000000e+00  1.1745152170397878e-07 -1.8485094877241915e-07 0.0000000000000000e+00  -1.5821439439669985e-07 -4.5332228480706423e-07 0.0000000000000000e+00  -4.0380998052978346e-08 1.3385059131433533e-09 0.0000000000000000e+00  1.2933991903771359e-08 -4.8811358828339884e-09 0.0000000000000000e+00  -7.2439151796207277e-07 -8.9211303975635031e-07 0.0000000000000000e+00  -4.4277562812674580e-07 6.9841030938070486e-08 0.0000000000000000e+00  -1.5703462173563181e-07 -4.2548443212375930e-07 0.0000000000000000e+00  -3.6177787027983317e-07 -3.3440480418077222e-07 0.0000000000000000e+00  -1.1986249786068444e-07 -1.0994542626800965e-07 0.0000000000000000e+00  -1.5704368769009851e-07 -9.1099407085139736e-08 0.0000000000000000e+00  -1.0804110286558133e-07 -9.6183972163751705e-08 0.0000000000000000e+00  -6.6897835847062625e-08 -4.2795680523061842e-08 0.0000000000000000e+00  -7.4468038322638801e-08 -5.7946083011339751e-08 0.0000000000000000e+00  -4.3389262453544887e-08 -2.9101400728489931e-08 0.0000000000000000e+00  -2.6327509136717029e-08 -2.9705241942634877e-08 0.0000000000000000e+00  -2.0976442260580518e-08 -2.3396427483068826e-08 0.0000000000000000e+00  -1.1077669128046735e-08 -4.1245837841702637e-08 0.0000000000000000e+00  -6.8847677093863291e-09 -4.6949373473756561e-08 0.0000000000000000e+00  -1.6847080247303443e-08 -8.1240807487793325e-08 0.0000000000000000e+00  -6.2929604610038219e-10 -4.6404535500324586e-08 0.0000000000000000e+00  2.6958244916056670e-09 -4.8427314548843258e-08 0.0000000000000000e+00  2.5706026341469177e-08 -6.0793012028668847e-08 0.0000000000000000e+00  7.1311902266232006e-09 -4.2386361841529330e-08 0.0000000000000000e+00  2.1561636602130590e-08 -3.3258807614041072e-08 0.0000000000000000e+00  3.2080120623807299e-08 -3.7327953843513562e-08 0.0000000000000000e+00  4.5556675770082215e-08 -3.4059713284882869e-08 0.0000000000000000e+00  5.9562653522995253e-08 -4.5201998887694992e-08 0.0000000000000000e+00  8.8808200281685023e-08 -7.2764545030197645e-08 0.0000000000000000e+00  1.0484192229155148e-07 -7.3980252445053086e-08 0.0000000000000000e+00  1.1063235281296183e-07 -6.3077988688176696e-08 0.0000000000000000e+00  7.7090778103084625e-08 1.0224088235493174e-07 0.0000000000000000e+00  2.9012025544554863e-07 -3.1289494718845741e-07 0.0000000000000000e+00  2.5910556403748602e-07 -3.5881993091554642e-07 0.0000000000000000e+00  6.0905009032881144e-07 2.9020548030200850e-07 0.0000000000000000e+00  9.9390833996287656e-07 -8.9850656266551594e-07 0.0000000000000000e+00  -2.5052497463046980e-07 -9.9715414982623000e-08 0.0000000000000000e+00  4.9355437494473341e-08 5.7299055228669809e-08 0.0000000000000000e+00  -6.8659426735961017e-08 -1.3366109247963303e-07 0.0000000000000000e+00  -4.3564471742494821e-08 -3.7190128622056801e-07 0.0000000000000000e+00  4.9179550064229003e-08 7.7930252867888140e-08 0.0000000000000000e+00  1.3027697613848448e-08 -1.5951926529181611e-07 0.0000000000000000e+00  1.9359043601991414e-07 -4.5823229500507622e-08 0.0000000000000000e+00  -1.8500024291037021e-07 -1.7017537645714370e-07 0.0000000000000000e+00  1.3308092788594450e-07 -6.0853427204993682e-09 0.0000000000000000e+00  -1.3562172012904583e-07 -9.3066446872993711e-08 0.0000000000000000e+00  1.6693822605463882e-07 -7.2205520901942107e-10 0.0000000000000000e+00  -2.0847823837364364e-07 -8.7053647046673206e-08 0.0000000000000000e+00  1.3598885831150584e-07 -2.1777745459996488e-08 0.0000000000000000e+00  -2.3158955239738428e-07 -1.8728316241194812e-07 0.0000000000000000e+00  1.8051707311050040e-07 -2.0227647575281886e-07 0.0000000000000000e+00  -7.0004108279580381e-08 -2.3675554680896543e-08 0.0000000000000000e+00  1.7369589383031760e-07 -1.7416720015535885e-07 0.0000000000000000e+00  -2.1139972339402176e-05 1.4219198072683771e-02 0.0000000000000000e+00  -1.1008361358966577e-05 1.4806562280582006e-02 0.0000000000000000e+00  -6.4671984963969588e-06 1.4838681569703388e-02 0.0000000000000000e+00  -3.3604919051009253e-06 1.4852926582077991e-02 0.0000000000000000e+00  -5.9898442186421254e-06 1.4851242573294321e-02 0.0000000000000000e+00  -9.2898203906796915e-06 1.4839883021952919e-02 0.0000000000000000e+00  -1.9577336339951613e-05 1.4814541321958266e-02 0.0000000000000000e+00  -2.4462325130412302e-05 1.4710736695909769e-02 0.0000000000000000e+00  -5.8264499345925330e-05 1.4018650531332000e-02 0.0000000000000000e+00  9.0219217041142973e-08 -1.4194572805742591e-07 0.0000000000000000e+00  4.3971972712809916e-07 8.4483023344951448e-09 0.0000000000000000e+00  1.1280293463447587e-07 6.5553493851380363e-09 0.0000000000000000e+00  -2.5463241521518975e-07 -6.2195829599147774e-07 0.0000000000000000e+00  -5.2897810934175641e-09 5.2622088892629400e-08 0.0000000000000000e+00  7.6732603209313123e-08 -8.9114222338153391e-08 0.0000000000000000e+00  1.8706680891799711e-07 -4.8370524375437134e-07 0.0000000000000000e+00  8.4263541209036159e-09 2.5730951665029788e-08 0.0000000000000000e+00  -1.2181872919218313e-07 -5.2796863279195187e-09 0.0000000000000000e+00  2.1168625099215321e-07 -1.1297535507856501e-07 0.0000000000000000e+00  -3.4803398661376265e-07 -3.1000821420063716e-07 0.0000000000000000e+00  1.7164223316452732e-08 -6.2478698333318664e-08 0.0000000000000000e+00  -9.4511723650017498e-08 1.7113221192057118e-07 0.0000000000000000e+00  3.5927667318657571e-07 -1.9146059799567303e-07 0.0000000000000000e+00  2.6142608288469348e-08 4.3908130826715532e-08 0.0000000000000000e+00  -2.3621837506878179e-07 -1.3887459075256929e-07 0.0000000000000000e+00  1.1137982407956631e-07 6.8913512700549062e-08 0.0000000000000000e+00  -1.9905245442495151e-07 -2.1444706672559867e-07 0.0000000000000000e+00  1.6863754253446472e-07 -1.0232219308156686e-07 0.0000000000000000e+00  -1.1304442091587659e-07 8.2688023510716116e-08 0.0000000000000000e+00  1.2007633539993735e-07 -1.2049951641202064e-07 0.0000000000000000e+00  -9.9357643443194648e-08 -3.6878147428881155e-08 0.0000000000000000e+00  -4.5613663975282314e-08 -2.7086741601352096e-08 0.0000000000000000e+00  -3.3226127344138164e-08 -1.6671263699657431e-07 0.0000000000000000e+00  -4.0704312553588625e-08 9.3272533192421974e-08 0.0000000000000000e+00  3.7720666144909057e-08 8.4400845361641110e-08 0.0000000000000000e+00  1.4516407341315797e-08 -1.1453624848248348e-07 0.0000000000000000e+00  4.5955958955286846e-08 -3.2969908388669903e-08 0.0000000000000000e+00  1.9383204507281283e-09 2.5997854148891973e-08 0.0000000000000000e+00  -2.1329771612091206e-07 -1.6326837148858552e-07 0.0000000000000000e+00  6.7901860308097822e-08 9.4418253941875369e-08 0.0000000000000000e+00  4.8933254336251408e-08 1.5259806651302134e-07 0.0000000000000000e+00  6.7763809065981067e-08 -3.8869143601304477e-07 0.0000000000000000e+00  -1.9901169820968393e-07 7.7085407878957128e-08 0.0000000000000000e+00  -1.4603777367774780e-07 1.1374928874838297e-07 0.0000000000000000e+00  3.7580573780391469e-09 -2.8830897134123367e-07 0.0000000000000000e+00  -1.0860506859359217e-07 -2.6893860235148896e-07 0.0000000000000000e+00  6.3993781414463382e-08 -8.5768182100766933e-08 0.0000000000000000e+00  -3.5531675309272676e-08 8.0867767843599296e-08 0.0000000000000000e+00  1.7848960785559085e-07 -1.9281414654338746e-07 0.0000000000000000e+00  1.5443180436549360e-07 -1.4909071500348278e-07 0.0000000000000000e+00  2.7476065626916638e-07 2.2575827446663804e-08 0.0000000000000000e+00  -1.0043597707590378e-07 -1.9075083825331019e-07 0.0000000000000000e+00  1.6155579634335553e-09 -2.6024183931491394e-08 0.0000000000000000e+00  -7.9589571524901677e-08 1.3310219275184461e-07 0.0000000000000000e+00  1.8955706776850927e-07 -2.8212762057519905e-07 0.0000000000000000e+00  -1.8201791103345672e-07 -1.8186483659640546e-07 0.0000000000000000e+00  -3.3784241166612648e-07 -4.6128379008406759e-07 0.0000000000000000e+00  -3.2916557663310426e-07 8.0023827224419484e-08 0.0000000000000000e+00  4.3164472827695680e-05 1.1858100447055011e-02 0.0000000000000000e+00  2.5866027678454017e-05 1.4875651687314306e-02 0.0000000000000000e+00  -7.8643595703075026e-04 1.4555823629893713e-02 0.0000000000000000e+00  -4.6524860079804120e-05 1.4876699065207815e-02 0.0000000000000000e+00  -1.3110686754061720e-04 5.5728338444185361e-03 0.0000000000000000e+00  1.1388674132337697e-03 1.3953342804522550e-02 0.0000000000000000e+00  2.3119551694491587e-04 1.4826576193613245e-02 0.0000000000000000e+00  -2.2170426521910458e-04 1.4835478784702247e-02 0.0000000000000000e+00  -1.6766057946516948e-05 1.4880065766707008e-02 0.0000000000000000e+00  3.6647199770180794e-04 1.6446678327239235e-03 0.0000000000000000e+00  -8.4819773146923053e-04 1.3261633639246290e-02 0.0000000000000000e+00  6.6420091094502619e-05 1.4866805010847965e-02 0.0000000000000000e+00  4.6458096382610771e-04 1.3060884769558998e-02 0.0000000000000000e+00  4.4311024470688819e-04 1.4456816665419916e-02 0.0000000000000000e+00  7.6141832802606218e-04 1.5062965448465597e-02 0.0000000000000000e+00  2.3141629168261469e-03 1.2543735620781076e-02 0.0000000000000000e+00  -2.3681112042194408e-03 1.2344848534113068e-02 0.0000000000000000e+00  2.5483626639640144e-05 1.4811687925160461e-02 0.0000000000000000e+00  -1.6360631730635332e-05 1.4845131753587390e-02 0.0000000000000000e+00  -1.3719728521278979e-03 2.3042694194157706e-03 0.0000000000000000e+00  -8.5974187095518535e-05 1.4919293649250060e-02 0.0000000000000000e+00  -4.0091889526208544e-04 1.5032302252613990e-02 0.0000000000000000e+00  2.9277146681331745e-05 1.4837478151077697e-02 0.0000000000000000e+00  -3.6485882662686260e-06 1.4853456129309555e-02 0.0000000000000000e+00  9.0189451191522661e-05 1.4772947563873307e-02 0.0000000000000000e+00  -9.7010056086806174e-05 1.2943833092012179e-02 0.0000000000000000e+00  -5.4314825990712460e-04 1.0291323465512077e-03 0.0000000000000000e+00  -3.6926783098635835e-05 1.4837498771891435e-02 0.0000000000000000e+00  -7.2599437270236405e-05 1.4782847165321435e-02 0.0000000000000000e+00  -2.8576557501081088e-04 1.4534081053467414e-02 0.0000000000000000e+00  -2.3427060218593036e-05 1.4865738017289793e-02 0.0000000000000000e+00  2.0049016801173040e-03 2.9377341742157989e-03 0.0000000000000000e+00  -1.9472635004113372e-03 1.4796357085033865e-02 0.0000000000000000e+00  9.9777795166801006e-04 9.4280449856077812e-03 0.0000000000000000e+00  -4.7378683734942918e-04 1.3996868100068076e-02 0.0000000000000000e+00  4.2118658262785865e-05 1.4851692128640012e-02 0.0000000000000000e+00  9.7078341420114112e-05 1.4922683182583074e-02 0.0000000000000000e+00  -3.0596269272430260e-03 8.1850077912418388e-03 0.0000000000000000e+00  4.7801780510604830e-04 1.3679231991621708e-02 0.0000000000000000e+00  1.6752409297175619e-04 1.4504477613621428e-02 0.0000000000000000e+00  2.0421495369707396e-03 1.5171099911203040e-02 0.0000000000000000e+00  5.1081598208849868e-06 1.4837016254640272e-02 0.0000000000000000e+00  5.1962213088529942e-04 7.9915650468232011e-04 0.0000000000000000e+00  1.6440281292597307e-05 1.4725711673044576e-02 0.0000000000000000e+00  4.4713660800368600e-03 6.5069545599342974e-03 0.0000000000000000e+00  2.3347146384619636e-04 1.4971479340678134e-02 0.0000000000000000e+00  -1.8700972979581331e-05 1.4736130370474478e-02 0.0000000000000000e+00  -1.1348733385002612e-04 1.4572933922149950e-02 0.0000000000000000e+00  -3.5268382894616785e-05 1.4814895161180328e-02 0.0000000000000000e+00  -1.7677594458341919e-04 1.4924358868660779e-02 0.0000000000000000e+00  -8.8891159885238504e-04 1.5277742412728255e-02 0.0000000000000000e+00  -1.3904366895077692e-05 1.4861448529565382e-02 0.0000000000000000e+00  -2.3309756578280325e-05 1.0845919677926791e-03 0.0000000000000000e+00  -3.7515392922184707e-03 4.1085449643728242e-03 0.0000000000000000e+00  7.9735856013750221e-06 1.4706210855244631e-02 0.0000000000000000e+00  1.2428899986101152e-03 1.1874707417091634e-03 0.0000000000000000e+00  2.2733113888447912e-05 1.4735351234000318e-02 0.0000000000000000e+00  -1.1916550772577909e-03 1.3937490018904727e-02 0.0000000000000000e+00  -2.4441329716758033e-04 1.2852655498889757e-02 0.0000000000000000e+00  3.2670055548886484e-04 1.3958109895848435e-02 0.0000000000000000e+00  9.1898943355405910e-06 1.4861235309811077e-02 0.0000000000000000e+00  -1.5365776227268895e-03 1.0175135678068936e-02 0.0000000000000000e+00  -1.0142118483690474e-03 1.2379390088715060e-02 0.0000000000000000e+00  1.1655947018400435e-04 1.4853099615469574e-02 0.0000000000000000e+00  4.0595574779260862e-05 1.4864015959009842e-02 0.0000000000000000e+00  1.2911550063967388e-03 1.3204067634933757e-02 0.0000000000000000e+00  7.1706118770081885e-05 1.4792587345681008e-02 0.0000000000000000e+00  -2.6889201011501626e-05 1.4883931860121645e-02 0.0000000000000000e+00  1.4740884494636659e-04 3.3201248802275157e-03 0.0000000000000000e+00  -8.8803594117429187e-05 1.4872946937303464e-02 0.0000000000000000e+00  -4.7015710383635295e-04 1.4758284013380163e-02 0.0000000000000000e+00  -2.9128429110883945e-04 1.4084415109593374e-02 0.0000000000000000e+00  1.1107536292992697e-04 1.3029816094501025e-02 0.0000000000000000e+00  7.6032924047087327e-04 1.4587267710031897e-02 0.0000000000000000e+00  4.9283930608346794e-04 1.4780595668398415e-02 0.0000000000000000e+00  2.2976848880756922e-05 1.4415890838676299e-02 0.0000000000000000e+00  -4.1595144833665464e-05 1.4203124249319818e-02 0.0000000000000000e+00  -1.4318123075046545e-03 1.0219448318163136e-03 0.0000000000000000e+00  1.7480960816198583e-04 1.2642602011745047e-02 0.0000000000000000e+00  4.7701298329953712e-03 1.0875722211283379e-02 0.0000000000000000e+00  5.7377953553737642e-05 1.3993331456680082e-02 0.0000000000000000e+00  2.1831217867993616e-04 1.2860391033537099e-02 0.0000000000000000e+00  6.4880332401536162e-05 1.4832772375128095e-02 0.0000000000000000e+00  9.1344442355894412e-04 1.2264514279524083e-02 0.0000000000000000e+00  5.4579260866094534e-05 1.4289564868355597e-02 0.0000000000000000e+00  -4.8597772864753921e-05 1.4156689528097583e-02 0.0000000000000000e+00  -2.4227817768951793e-04 1.2989915751119555e-02 0.0000000000000000e+00  2.0351337841156811e-04 1.3909725000156485e-02 0.0000000000000000e+00  -3.9300900321362982e-04 4.9269840668006405e-04 0.0000000000000000e+00  -7.6968702222164449e-05 1.4173699755462552e-02 0.0000000000000000e+00  1.0000472621854780e-03 1.5016315069431331e-02 0.0000000000000000e+00  -2.6161340321055922e-05 1.4878273668977383e-02 0.0000000000000000e+00  -5.1303659919721075e-04 1.7085223595586683e-03 0.0000000000000000e+00  -4.3563249379421180e-03 1.3588629750124854e-02 0.0000000000000000e+00  2.0264054489269865e-03 1.3858644754571417e-02 0.0000000000000000e+00  -6.1864961546063090e-04 7.9702957456308510e-03 0.0000000000000000e+00  1.8944047481515512e-05 1.4872850851918589e-02 0.0000000000000000e+00  -3.5800047580849237e-05 1.4148152500459272e-02 0.0000000000000000e+00  -1.4297960600147485e-03 1.3239390795087732e-02 0.0000000000000000e+00  -2.4383267723401388e-04 1.4964251185583911e-02 0.0000000000000000e+00  4.5864025385714066e-05 1.4129128468197128e-02 0.0000000000000000e+00  -8.8687184907914501e-05 1.3933014037791853e-02 0.0000000000000000e+00  1.6845526117948627e-04 1.4726906121035485e-02 0.0000000000000000e+00  3.3204541323014682e-05 1.3874268299094968e-02 0.0000000000000000e+00  -3.9791470686465172e-05 1.3912399807972089e-02 0.0000000000000000e+00  -1.7475007191946568e-04 1.3982186985851682e-02 0.0000000000000000e+00  4.1204703941340824e-03 2.9502824356871572e-03 0.0000000000000000e+00  3.7719598746024919e-04 1.4639009583558271e-02 0.0000000000000000e+00  -2.6690698959235606e-03 1.6621027866003232e-03 0.0000000000000000e+00  6.3345080039770897e-04 1.4184472376020323e-02 0.0000000000000000e+00  1.9973652349813620e-05 1.4857015218400266e-02 0.0000000000000000e+00  4.0054172429609403e-03 1.3725011660550859e-02 0.0000000000000000e+00  -1.3314964854419483e-03 4.0223983760647617e-03 0.0000000000000000e+00  -7.3069229589616935e-04 1.4909201127977023e-02 0.0000000000000000e+00  2.2096895835722951e-05 1.4830618650730897e-02 0.0000000000000000e+00  -2.9911244327015636e-05 1.3889821366659647e-02 0.0000000000000000e+00  -8.5783986900503612e-06 1.4844962811557691e-02 0.0000000000000000e+00  -9.5972694064575627e-06 1.3854249734091724e-02 0.0000000000000000e+00  -5.7632705693951273e-05 1.4897657229304051e-02 0.0000000000000000e+00  2.1255797190981595e-05 1.4883784828676649e-02 0.0000000000000000e+00  -2.4793889754606325e-05 1.4858134365515622e-02 0.0000000000000000e+00  -2.8010425715619008e-05 1.4828616710790927e-02 0.0000000000000000e+00  -1.6669866746615901e-04 7.9064283910315711e-04 0.0000000000000000e+00  -4.8619166485324388e-04 1.4442185416621787e-02 0.0000000000000000e+00  -4.5499167099563023e-04 1.2967978299165361e-02 0.0000000000000000e+00  -7.2530985765744733e-05 1.3686259154162781e-02 0.0000000000000000e+00  6.6604048998079182e-05 1.4345803150526372e-02 0.0000000000000000e+00  -2.1338163573584180e-05 1.3889366962692782e-02 0.0000000000000000e+00  -2.1398533054622218e-04 1.4677379862548988e-02 0.0000000000000000e+00  -1.5345271175468744e-04 1.4912180753861770e-02 0.0000000000000000e+00  -5.0032980366600520e-05 1.4842196806796352e-02 0.0000000000000000e+00  -6.8898159168183438e-05 1.2450505391032270e-02 0.0000000000000000e+00  2.0414418478616731e-05 1.4284674163133443e-02 0.0000000000000000e+00  6.3535008170230979e-05 1.4101936152992231e-02 0.0000000000000000e+00  1.9608260791423326e-03 4.8247248370273024e-03 0.0000000000000000e+00  9.4774069360803372e-04 1.1118159168234210e-02 0.0000000000000000e+00  2.0023163349757185e-04 1.4951592903156355e-02 0.0000000000000000e+00  -2.0512885561333816e-06 1.4838635076139516e-02 0.0000000000000000e+00  1.6798701440847531e-04 7.9261690074041086e-04 0.0000000000000000e+00  1.4839823556493728e-03 7.0978578683148774e-03 0.0000000000000000e+00  -1.4954239275033912e-03 1.4646807132901906e-02 0.0000000000000000