<?xml version="1.0"?>
<VTKFile type="UnstructuredGrid"  version="0.1"  >
<UnstructuredGrid>
<Piece  NumberOfPoints="853" NumberOfCells="1564">
<Points>
<DataArray  type="Float64"  NumberOfComponents="3"  format="ascii">0 0 0  1 0 0  1 2 0  2 2 0  2 3 0  1 3 0  1 5 0  0 5 0  0.09999999999981467 0 0  0.1999999999995579 0 0  0.2999999999992664 0 0  0.3999999999989749 0 0  0.4999999999986943 0 0  0.5999999999989468 0 0  0.69999999999921 0 0  0.7999999999994734 0 0  0.8999999999997368 0 0  1 0.0999999999997993 0  1 0.1999999999996293 0  1 0.2999999999994072 0  1 0.3999999999991157 0  1 0.4999999999988242 0  1 0.5999999999985328 0  1 0.6999999999982413 0  1 0.7999999999979498 0  1 0.8999999999976585 0  1 0.9999999999973885 0  1 1.09999999999763 0  1 1.199999999997894 0  1 1.299999999998157 0  1 1.39999999999842 0  1 1.499999999998683 0  1 1.599999999998947 0  1 1.69999999999921 0  1 1.799999999999474 0  1 1.899999999999737 0  1.1 2 0  1.2 2 0  1.3 2 0  1.4 2 0  1.5 2 0  1.6 2 0  1.7 2 0  1.8 2 0  1.9 2 0  2 2.1 0  2 2.2 0  2 2.299999999999999 0  2 2.399999999999999 0  2 2.5 0  2 2.6 0  2 2.7 0  2 2.8 0  2 2.9 0  1.9 3 0  1.8 3 0  1.7 3 0  1.6 3 0  1.5 3 0  1.4 3 0  1.3 3 0  1.2 3 0  1.1 3 0  1 3.1 0  1 3.2 0  1 3.299999999999999 0  1 3.399999999999999 0  1 3.499999999999999 0  1 3.599999999999999 0  1 3.699999999999999 0  1 3.799999999999999 0  1 3.899999999999999 0  1 4 0  1 4.1 0  1 4.199999999999999 0  1 4.3 0  1 4.399999999999999 0  1 4.5 0  1 4.6 0  1 4.699999999999999 0  1 4.8 0  1 4.899999999999999 0  0.8999999999995836 5 0  0.7999999999999998 5 0  0.7000000000006934 5 0  0.6000000000013869 5 0  0.5000000000020587 5 0  0.4000000000016644 5 0  0.3000000000012483 5 0  0.2000000000008322 5 0  0.100000000000416 5 0  0 4.899999999999999 0  0 4.8 0  0 4.699999999999999 0  0 4.6 0  0 4.499999999999999 0  0 4.399999999999999 0  0 4.299999999999999 0  0 4.199999999999998 0  0 4.099999999999999 0  0 3.999999999999999 0  0 3.899999999999999 0  0 3.799999999999999 0  0 3.699999999999998 0  0 3.599999999999999 0  0 3.499999999999999 0  0 3.399999999999999 0  0 3.299999999999999 0  0 3.199999999999998 0  0 3.099999999999999 0  0 2.999999999999999 0  0 2.899999999999999 0  0 2.799999999999999 0  0 2.699999999999999 0  0 2.599999999999999 0  0 2.5 0  0 2.399999999999999 0  0 2.299999999999999 0  0 2.199999999999999 0  0 2.1 0  0 2 0  0 1.899999999999999 0  0 1.799999999999999 0  0 1.699999999999999 0  0 1.599999999999999 0  0 1.5 0  0 1.399999999999999 0  0 1.299999999999999 0  0 1.199999999999999 0  0 1.1 0  0 0.9999999999999991 0  0 0.8999999999999995 0  0 0.7999999999999998 0  0 0.7000000000000002 0  0 0.5999999999999996 0  0 0.4999999999999991 0  0 0.3999999999999995 0  0 0.3000000000000007 0  0 0.1999999999999993 0  0 0.09999999999999964 0  0.6166569079913358 2.492277433160826 0  0.496804750005887 0.5479593764091243 0  0.5000000000000001 3.249999999999996 0  0.5010746240977132 4.146233959879961 0  1.15284373704454 2.508044505059064 0  0.5115316434189965 1.955545969082757 0  0.4999999999999211 1.349999999999999 0  0.4689171957673295 3.679717700049328 0  0.5612906571832685 4.583387229041095 0  1.571380248656294 2.43209333797878 0  0.4137140166874343 2.842788829011612 0  0.5924999999992734 0.9499999999993549 0  0.3530983922827606 2.277151253345766 0  0.3374999999999892 1.65000000000002 0  0.6755701284515059 1.666012036452857 0  0.7199661008857956 2.178412873198308 0  0.7334525640603837 2.809285576954712 0  0.3169326937911943 0.8062495868452884 0  0.3138857644565878 4.404201202807377 0  1.409460640835247 2.684430832001214 0  0.6887829815303428 3.902565963060691 0  0.6887829815303437 3.49743403693931 0  0.3083333333329294 0.3083333333329091 0  0.6836117544982274 0.312527457707179 0  0.3168915343039068 1.103810255435239 0  0.3022648077978692 2.555831328112146 0  1.699661159477641 2.699661159477642 0  0.3119190378227792 4.685290485878375 0  0.2857741186203023 3.950276087647296 0  0.2901796187683303 3.455359237536657 0  0.7185169821104359 4.329943392965225 0  1.329943392965171 2.281483017889551 0  0.723334373514972 3.086114578383237 0  0.8872939267661155 2.418951697643693 0  0.2683606383900753 3.107323129784811 0  0.7213259925957727 0.709299358069827 0  0.7248933848217622 1.191311282739447 0  0.9946254212153881 2.725887626364616 0  0.2534599397489012 2.044779020535383 0  0.2472238456272076 1.409843650950396 0  0.7466779594322671 1.891779594322711 0  0.751445254703026 4.751445254703024 0  1.751445254703023 2.248554745296977 0  0.2308928978487501 0.5537472873885254 0  1.08084306636788 2.246658930824796 0  0.7618726449950816 1.428238687173948 0  0.2386599654867296 4.176198813049547 0  0.2277655772754102 3.726664793307169 0  0.7721651484755335 4.113350253753182 0  0.7651749878558429 3.697580220958253 0  0.7656850901336474 3.299617602969102 0  0.4980799523915615 4.792356177625049 0  1.776143433203817 2.501327251062086 0  1.208880242020366 2.780272536786154 0  0.7911996774911533 4.53781383416655 0  1.542032468257247 2.216473886475725 0  0.7821379364211358 0.4969347839607502 0  0.5159796121199893 3.035942476666499 0  0.1994782516945909 2.77487521870957 0  0.2121527327795772 1.820534480974185 0  0.4961068761097068 0.2091473007262267 0  0.8212076849290986 2.630353036209751 0  0.5799159337228276 2.696151511257179 0  0.521656415787208 1.134485020795658 0  0.5198027681168929 0.7515845938922632 0  0.5314469083329 2.149920708093939 0  0.8022340879252141 0.949830582795168 0  0.5153738125904214 4.366355293244797 0  1.369864008384514 2.483509168319498 0  0.493575298272567 3.951867463619321 0  0.4920800561363075 3.451776843677214 0  0.1993224400966551 3.276384038573164 0  0.2040352237160636 2.400557997609325 0  0.504974575031962 1.751372233424674 0  0.499694528062418 1.552255000835086 0  0.1883367598055906 0.9438245084748886 0  0.1955706745794366 4.52834806507854 0  1.537127505356749 2.822707438948337 0  0.4347408457716787 2.442047619826679 0  0.9025073455677252 2.163749048054409 0  0.1773846193758333 1.247310083483254 0  0.1790840974615431 2.196648468506937 0  0.4241221003595179 0.9580937949419669 0  0.5742095764754795 2.324790710904777 0  0.1810593287337392 0.1648759332410678 0  0.830532350559559 0.1714616318750705 0  0.1799849931748815 2.936783687129475 0  0.1700601135178742 1.60121319242071 0  1.834470454079937 2.829637832875926 0  0.1703621671240551 4.83447045408015 0  0.829990552477618 1.736728469669415 0  0.3976185944449355 4.553236496558402 0  1.555161286389273 2.597039871453049 0  0.8411335884160621 2.955436961449523 0  0.6558334436081007 2.021696625357631 0  0.9866801805488914 2.554042320868289 0  0.4842405954457978 0.3674248026875673 0  0.1764810578689407 0.6996979327130011 0  0.5695354616787965 2.867647040045057 0  0.627187487409925 3.659501677082119 0  0.1696270647651137 0.3969694240763386 0  0.1588761645418826 3.579667620980887 0  0.3504882684591691 1.27320675399182 0  0.1613150679413317 4.323270191935268 0  0.8439697987258331 3.850137374173121 0  0.8582592809978382 3.556895103851285 0  1.2205291243602 2.169320339907971 0  0.8274853269315643 1.578104600362255 0  1.35480687481049 2.843927765640049 0  0.3677577894563876 1.843336837909973 0  0.3739468553634951 0.650971017289567 0  0.8175350952416559 2.032763453059245 0  1.255052217924463 2.621284633706947 0  0.6275139014702615 3.348445849128012 0  0.3500097682353719 0.1540209779916574 0  0.8470720720723232 0.3499999999992615 0  0.6516218900422024 0.1543745010121346 0  0.1570362925186822 4.034940931583384 0  0.6259846398323782 4.050387381032598 0  0.6243837498547334 0.4550390732635957 0  0.3764337664925781 4.252429701173535 0  0.3638240662285239 4.845889022715784 0  1.841058165929382 2.650192415774816 0  0.3538129642253492 3.310506091581767 0  0.3972635403128369 2.692091228217206 0  0.1493546974812203 3.864275696990799 0  0.8353411562925317 1.295894841996498 0  0.8510640038578493 4.24376876336904 0  0.3274183905250344 3.60709353923235 0  0.5690599951287177 3.803379429947107 0  0.3608465922823166 4.079737353610348 0  0.1464953658605303 2.61946161625165 0  0.8522365706696342 1.101349250004825 0  0.8462743532452005 0.8012074197151465 0  1.200278576701711 2.350961992006298 0  0.7326508832134601 2.394973662719556 0  0.6648495127067672 1.330201720826574 0  0.6421476239135478 4.851671120026346 0  1.851998954991891 2.359839578227697 0  1.041233083983184 2.39820467647697 0  0.8526824909154477 3.164884108363255 0  0.3803758752537028 2.126429281492964 0  0.6420376057736918 4.200165882518018 0  0.8501088759525246 4.401734271500779 0  1.398058673633662 2.147688933973308 0  0.8545605983512565 0.6343835319818829 0  1.072584152252426 2.853228937916825 0  0.8462674517070675 4.851971641280215 0  1.853403041422536 2.15097879283758 0  0.3930760976266651 3.836742518240063 0  0.1459746256495623 1.094533214558924 0  0.1449604950589468 3.41641374300675 0  0.360147239891959 1.507070948822289 0  0.1371791188132176 3.14627243933882 0  0.1373781948221472 1.948699496915061 0  0.8787091687571863 2.813528399808599 0  0.640346663916172 3.202454813230568 0  0.1447898426935465 4.687821488540191 0  1.681222862898315 2.858606263227755 0  0.6057151088165942 1.858748550906064 0  0.6959087423316198 1.05023956637574 0  0.6929156491439609 0.8504350871602226 0  0.3804448021156934 2.991689533004409 0  0.4069998378428982 3.136829475620725 0  0.6221516319980132 1.461574324140038 0  0.8595221684437686 4.671970471025065 0  1.655041305862432 2.135199824735708 0  0.8397218722524009 3.992237826182404 0  0.6648391028671355 4.465773104071535 0  1.462522756387578 2.335702451268775 0  1.107872485384334 2.648667416202137 0  0.6412014890654342 0.5971222632485688 0  0.8285592833177335 2.286311487886619 0  0.4769010664620999 2.574488224117733 0  0.3384926303571551 0.445684366822149 0  0.622529668465069 4.711696333659297 0  1.70347020696268 2.379656531207025 0  0.673413754958227 2.634174081826437 0  0.8424185362726981 3.41410212582428 0  0.1496314029302428 1.699903720635713 0  0.6712113209446312 2.961657242108266 0  0.1318402597280083 0.83835
[...]
<PointData  Vectors="f_15"> 
<DataArray  type="Float64"  Name="f_15"  NumberOfComponents="3" format="ascii">-1.8710083266479058e-07 5.0285126225348404e-07 0.0000000000000000e+00  2.8288911236195949e-07 2.0660650875764244e-07 0.0000000000000000e+00  3.8817357062181101e-07 -1.6683690104081085e-08 0.0000000000000000e+00  -2.8595867863010279e-08 -2.9435676575125596e-08 0.0000000000000000e+00  1.4351817156875506e-08 -2.0874930817176969e-08 0.0000000000000000e+00  -2.2443347159348147e-07 2.4885918569791754e-07 0.0000000000000000e+00  5.0469580556929066e-08 2.9249961215484443e-07 0.0000000000000000e+00  2.3223670846511139e-07 1.6597980249407303e-07 0.0000000000000000e+00  7.7476712427469532e-05 1.5520949645542591e-02 0.0000000000000000e+00  2.4378781246769879e-05 1.6351490860290405e-02 0.0000000000000000e+00  2.0974386659607750e-05 1.6467420387655262e-02 0.0000000000000000e+00  8.3543858033574804e-06 1.6492895108283487e-02 0.0000000000000000e+00  3.0850645727185005e-06 1.6504141296671854e-02 0.0000000000000000e+00  -5.0514742127179065e-07 1.6500925382007228e-02 0.0000000000000000e+00  -1.1586009090296855e-05 1.6487590477759131e-02 0.0000000000000000e+00  -1.5442513510983666e-05 1.6388103208326447e-02 0.0000000000000000e+00  -8.0617421991418931e-05 1.5569247484753702e-02 0.0000000000000000e+00  3.2304602103058661e-07 1.8791242628065368e-07 0.0000000000000000e+00  1.9860694537028962e-07 -3.2932916665017549e-07 0.0000000000000000e+00  9.1339581135898123e-08 -3.2815819539153448e-07 0.0000000000000000e+00  1.7290920166784599e-08 2.7899825535753464e-07 0.0000000000000000e+00  -5.2583834005340228e-08 -4.3698249122620737e-07 0.0000000000000000e+00  -7.8910574830162063e-09 -2.0875273626955181e-07 0.0000000000000000e+00  -8.3551960921358718e-08 9.6768599378542398e-08 0.0000000000000000e+00  -6.0288041469087859e-08 -2.1092418868258143e-07 0.0000000000000000e+00  -9.3138404901600338e-08 -4.2329409339001282e-08 0.0000000000000000e+00  2.6614425401917301e-08 1.1549266431282130e-07 0.0000000000000000e+00  1.2153714005072588e-07 -4.3969832412976911e-09 0.0000000000000000e+00  9.2283852985186046e-08 -4.8563464011601359e-08 0.0000000000000000e+00  1.3191593744390171e-07 7.0778825800236854e-08 0.0000000000000000e+00  1.5379457443498215e-07 -1.8564564226154645e-07 0.0000000000000000e+00  3.3751932827708871e-09 -2.9037110172579251e-07 0.0000000000000000e+00  -7.1382779674506488e-08 -4.4295132683846613e-08 0.0000000000000000e+00  -1.8705239669950515e-07 -1.3948299428930999e-07 0.0000000000000000e+00  -1.2701952414223600e-07 -2.3014595733384774e-08 0.0000000000000000e+00  -1.0223521861064269e-09 -7.5285793112433426e-08 0.0000000000000000e+00  1.4785948153303717e-07 -2.0972461375723746e-07 0.0000000000000000e+00  -3.0504078959474174e-07 -4.0943110837968694e-07 0.0000000000000000e+00  -9.6012728249363767e-08 -1.5121157574507322e-07 0.0000000000000000e+00  -1.5392610963499320e-07 -1.2993634553369845e-07 0.0000000000000000e+00  -9.9493479372418305e-08 -7.2709304617203352e-08 0.0000000000000000e+00  -5.8739146038788876e-08 -3.5551552247633949e-08 0.0000000000000000e+00  -5.0008107946093885e-08 -3.4128520156337208e-08 0.0000000000000000e+00  -4.5484459977303646e-08 -3.0542214692632981e-08 0.0000000000000000e+00  -1.7101565541823488e-08 -1.8406139060287273e-08 0.0000000000000000e+00  -8.1354388496247361e-09 -1.4081051841576710e-08 0.0000000000000000e+00  -1.7364360931617483e-08 -4.1397291076324822e-08 0.0000000000000000e+00  -5.1360570441924985e-09 -4.3082509595644535e-08 0.0000000000000000e+00  -5.2277769790337820e-09 -5.2056110952570965e-08 0.0000000000000000e+00  7.7636299899787826e-10 -4.9380396817126963e-08 0.0000000000000000e+00  3.9146674737011777e-09 -4.4563180999864761e-08 0.0000000000000000e+00  8.1361894820931048e-09 -4.1551309661328863e-08 0.0000000000000000e+00  1.1878652136492921e-08 -4.2876002308098944e-08 0.0000000000000000e+00  1.5692813018264641e-08 -2.8507963880532641e-08 0.0000000000000000e+00  2.3166797557939236e-08 -2.5557380077016805e-08 0.0000000000000000e+00  4.3295786092547327e-08 -3.1261166665030837e-08 0.0000000000000000e+00  5.3129583333061477e-08 -3.6536515267844172e-08 0.0000000000000000e+00  5.9304593377454961e-08 -4.6228504312319468e-08 0.0000000000000000e+00  1.1624803787043649e-07 -8.1699753596766304e-08 0.0000000000000000e+00  1.1867273420859841e-07 -9.7394303754119249e-08 0.0000000000000000e+00  8.9566375960583464e-08 -9.5643137897215982e-08 0.0000000000000000e+00  2.1343279069038726e-07 -3.4237891394703821e-07 0.0000000000000000e+00  -1.9860001188861621e-07 4.5244578442534743e-08 0.0000000000000000e+00  1.9947429951115418e-07 2.6629148688504834e-07 0.0000000000000000e+00  3.2666984434443659e-07 -2.9002047724545261e-07 0.0000000000000000e+00  8.3033940268376905e-08 -1.3991277336732197e-07 0.0000000000000000e+00  -3.4674536900173090e-08 1.7784129631787675e-08 0.0000000000000000e+00  8.0900218153087136e-08 -8.8121236940631366e-08 0.0000000000000000e+00  9.2281952682754828e-08 -1.4069238304306674e-07 0.0000000000000000e+00  3.7599313586326743e-08 -6.4980274466979459e-08 0.0000000000000000e+00  -5.2078577008145493e-08 -8.9904606158627841e-09 0.0000000000000000e+00  -1.8315876006254697e-08 7.8318904105462508e-08 0.0000000000000000e+00  3.1597248993217554e-08 -2.1805029317329646e-07 0.0000000000000000e+00  -6.3408788862757327e-08 1.5238989312504926e-08 0.0000000000000000e+00  -1.2756141170016024e-08 -6.2881854790821862e-08 0.0000000000000000e+00  5.5911482194954246e-08 3.9774547976896513e-08 0.0000000000000000e+00  6.6532689817957841e-08 -1.1880892297978092e-08 0.0000000000000000e+00  -5.2303704711471096e-08 -7.9322755711695677e-08 0.0000000000000000e+00  -5.8847242997340679e-08 -1.7070520024693120e-07 0.0000000000000000e+00  -4.2413921064768854e-08 -1.2642731563226695e-07 0.0000000000000000e+00  3.2425577465011721e-08 -1.4617153457311853e-07 0.0000000000000000e+00  1.3561251171896668e-09 2.1093322908753345e-08 0.0000000000000000e+00  -2.1705170741889753e-05 1.5798183443149611e-02 0.0000000000000000e+00  -1.2421972400184721e-05 1.6452754826788117e-02 0.0000000000000000e+00  -7.2275700574765570e-06 1.6487970396490814e-02 0.0000000000000000e+00  -3.6946078879097478e-06 1.6503332138244287e-02 0.0000000000000000e+00  -6.5775908302785725e-06 1.6501443388531413e-02 0.0000000000000000e+00  -1.0196654011019312e-05 1.6488939209998010e-02 0.0000000000000000e+00  -2.1407442281051125e-05 1.6460933576109723e-02 0.0000000000000000e+00  -2.6699087615092905e-05 1.6346991455008248e-02 0.0000000000000000e+00  -6.3809785255757064e-05 1.5582130011711732e-02 0.0000000000000000e+00  2.8343280850796292e-07 -1.3569617600627220e-08 0.0000000000000000e+00  3.1029396742345538e-07 -1.1839251806668290e-07 0.0000000000000000e+00  2.0248614216939366e-07 3.5700237352779318e-08 0.0000000000000000e+00  2.5401560524345158e-09 -2.7365605696854423e-07 0.0000000000000000e+00  -2.1572130597623333e-08 -1.3891960051384654e-07 0.0000000000000000e+00  -2.0131087943220359e-08 -1.5962228334697325e-07 0.0000000000000000e+00  5.6557957749859950e-08 3.5298882245636245e-08 0.0000000000000000e+00  2.7684461834530248e-10 -1.2090792081758935e-07 0.0000000000000000e+00  -2.7094974579240745e-08 7.1118186110034187e-08 0.0000000000000000e+00  -3.4408151641669853e-08 -7.2321683115782805e-08 0.0000000000000000e+00  2.6100832972485408e-08 -1.1742223599504148e-07 0.0000000000000000e+00  2.9670191812192310e-08 -7.1246955159747845e-08 0.0000000000000000e+00  -6.1464618501168873e-08 1.7498072407528871e-08 0.0000000000000000e+00  -8.8229507143542202e-08 5.2268440297942234e-08 0.0000000000000000e+00  -9.5967208087759630e-09 1.2441519373329858e-07 0.0000000000000000e+00  1.1133974366167076e-07 3.8879690525339550e-08 0.0000000000000000e+00  4.0466556369936999e-08 -7.9233629428221620e-08 0.0000000000000000e+00  -3.4631030606809788e-08 -7.9500267147656272e-08 0.0000000000000000e+00  -1.2030922230372160e-08 -3.1357822653182176e-08 0.0000000000000000e+00  1.3216657232396355e-09 -9.8543433262334673e-08 0.0000000000000000e+00  -6.4212906440501175e-08 1.6660728472967778e-08 0.0000000000000000e+00  -8.0259943905004726e-08 1.9721234116820293e-09 0.0000000000000000e+00  2.5590241304925018e-09 -2.2683810214779331e-08 0.0000000000000000e+00  -3.5450621875361553e-08 -2.0010336026513022e-07 0.0000000000000000e+00  -4.7225493760778705e-08 6.9685862649434463e-08 0.0000000000000000e+00  1.1749936841014742e-08 1.0547460389026167e-07 0.0000000000000000e+00  1.2894852545840899e-07 -6.3101481817755626e-08 0.0000000000000000e+00  1.2701834946189231e-07 -8.2060104750504968e-08 0.0000000000000000e+00  -3.4163444289293590e-08 -1.9925772252417204e-08 0.0000000000000000e+00  -2.3643675256573958e-08 9.9002841368912239e-08 0.0000000000000000e+00  2.7996918947962034e-08 -1.6812481339215178e-08 0.0000000000000000e+00  5.4382650466443202e-08 5.0689245480974491e-08 0.0000000000000000e+00  -1.3464313842045172e-08 -1.1171166152224354e-07 0.0000000000000000e+00  -6.4540607838372908e-08 2.5754391010102902e-08 0.0000000000000000e+00  -1.0149788860533279e-07 8.7306736823123613e-08 0.0000000000000000e+00  -6.9411687982825156e-08 -2.2731249859582642e-07 0.0000000000000000e+00  1.8768778670581502e-08 -1.3506158702534818e-07 0.0000000000000000e+00  3.5620249933801759e-08 -1.7918158053319962e-07 0.0000000000000000e+00  -1.3582927315493366e-08 4.0274665142228648e-08 0.0000000000000000e+00  -7.0259262448103343e-08 -1.3244907627203007e-07 0.0000000000000000e+00  1.1571507901368188e-07 -1.0314737332814281e-07 0.0000000000000000e+00  1.8232069006152638e-07 8.4251926643361415e-08 0.0000000000000000e+00  1.4641028203922963e-07 -7.0877179028371310e-08 0.0000000000000000e+00  -1.4701027150173561e-08 -5.5336343717351925e-08 0.0000000000000000e+00  -1.6737810609828080e-07 3.1670434168418053e-08 0.0000000000000000e+00  -1.3098170121324785e-07 -8.7009217129718889e-08 0.0000000000000000e+00  -1.8304612737555333e-07 -1.4876163659683595e-07 0.0000000000000000e+00  -2.6459223245052455e-07 -5.0284779830220699e-07 0.0000000000000000e+00  -2.9716156032059180e-07 7.9221766762463263e-08 0.0000000000000000e+00  4.8035382158805432e-05 1.3175651839021696e-02 0.0000000000000000e+00  2.8703303397545930e-05 1.6528418966074168e-02 0.0000000000000000e+00  -8.7363284437903886e-04 1.6173225885328792e-02 0.0000000000000000e+00  -5.1663620776732973e-05 1.6529431143272197e-02 0.0000000000000000e+00  -1.4511359187928288e-04 6.1915546310705267e-03 0.0000000000000000e+00  1.2656566749261198e-03 1.5504213774401024e-02 0.0000000000000000e+00  2.5698493209795370e-04 1.6474011705994884e-02 0.0000000000000000e+00  -2.4626822515685150e-04 1.6483673613767090e-02 0.0000000000000000e+00  -1.8559448469467373e-05 1.6533336746047105e-02 0.0000000000000000e+00  4.0632151973972550e-04 1.8279865287640122e-03 0.0000000000000000e+00  -9.4203761344144809e-04 1.4735965177264040e-02 0.0000000000000000e+00  7.3806433086584923e-05 1.6518660161868811e-02 0.0000000000000000e+00  5.1617131650742666e-04 1.4512177861859059e-02 0.0000000000000000e+00  4.9224588932522033e-04 1.6063540840997748e-02 0.0000000000000000e+00  8.4564282423941323e-04 1.6736561840176294e-02 0.0000000000000000e+00  2.5713812985273103e-03 1.3937002930785501e-02 0.0000000000000000e+00  -2.6314160643486676e-03 1.3716130276340150e-02 0.0000000000000000e+00  2.8289889092776953e-05 1.6457665236830475e-02 0.0000000000000000e+00  -1.8078800013673799e-05 1.6494913952752880e-02 0.0000000000000000e+00  -1.5244003996313111e-03 2.5601098216817722e-03 0.0000000000000000e+00  -9.5565169514952067e-05 1.6577397558485012e-02 0.0000000000000000e+00  -4.4536470243435012e-04 1.6702899060619093e-02 0.0000000000000000e+00  3.2389419974053904e-05 1.6486687463087138e-02 0.0000000000000000e+00  -3.8893815342723225e-06 1.6504376166895939e-02 0.0000000000000000e+00  1.0015564101828205e-04 1.6414580711933826e-02 0.0000000000000000e+00  -1.0791533813822857e-04 1.4382574401578833e-02 0.0000000000000000e+00  -6.0339012497112794e-04 1.1434826761927575e-03 0.0000000000000000e+00  -4.0793764622104728e-05 1.6486598347128508e-02 0.0000000000000000e+00  -8.0607193698839570e-05 1.6425968059537065e-02 0.0000000000000000e+00  -3.1739217404497624e-04 1.6149700949475293e-02 0.0000000000000000e+00  -2.6089761250072189e-05 1.6518091792998558e-02 0.0000000000000000e+00  2.2286967811402511e-03 3.2627982072340688e-03 0.0000000000000000e+00  -2.1639728456546983e-03 1.6442810483672358e-02 0.0000000000000000e+00  1.1088013701292451e-03 1.0475371787720070e-02 0.0000000000000000e+00  -5.2653753184577672e-04 1.5552763628362927e-02 0.0000000000000000e+00  4.6667175990787067e-05 1.6502584710602314e-02 0.0000000000000000e+00  1.0791698064679055e-04 1.6581475183083904e-02 0.0000000000000000e+00  -3.4020631427181935e-03 9.0953674782960608e-03 0.0000000000000000e+00  5.3106970635105567e-04 1.5199898366046070e-02 0.0000000000000000e+00  1.8651298352879268e-04 1.6118508837493748e-02 0.0000000000000000e+00  2.2680523049928799e-03 1.6858081857778994e-02 0.0000000000000000e+00  5.5997839393927772e-06 1.6486590805053550e-02 0.0000000000000000e+00  5.7727198579743855e-04 8.8817419859285747e-04 0.0000000000000000e+00  1.8225117738816231e-05 1.6361837673061905e-02 0.0000000000000000e+00  4.9662002696938207e-03 7.2294299547322194e-03 0.0000000000000000e+00  2.5975262005226997e-04 1.6637698344535844e-02 0.0000000000000000e+00  -2.0943143589875690e-05 1.6375338307940360e-02 0.0000000000000000e+00  -1.2602870213192799e-04 1.6192532877418474e-02 0.0000000000000000e+00  -3.9148513258683444e-05 1.6462875273454268e-02 0.0000000000000000e+00  -1.9631034020112727e-04 1.6584437337767346e-02 0.0000000000000000e+00  -9.8688378276091102e-04 1.6977049614603591e-02 0.0000000000000000e+00  -1.5374841680961370e-05 1.6512671472324356e-02 0.0000000000000000e+00  -2.5933235732545430e-05 1.2050331652925228e-03 0.0000000000000000e+00  -4.1669801398189661e-03 4.5611934002822239e-03 0.0000000000000000e+00  8.9011465197910306e-06 1.6340992171325886e-02 0.0000000000000000e+00  1.3815302554186521e-03 1.3188840351081939e-03 0.0000000000000000e+00  2.5307039258131648e-05 1.6373150959615407e-02 0.0000000000000000e+00  -1.3238524235392299e-03 1.5486735454077411e-02 0.0000000000000000e+00  -2.7172902292470018e-04 1.4283369030536499e-02 0.0000000000000000e+00  3.6269665202160584e-04 1.5509826780042795e-02 0.0000000000000000e+00  1.0189462017382214e-05 1.6512600389674215e-02 0.0000000000000000e+00  -1.7067724224686101e-03 1.1307122516772019e-02 0.0000000000000000e+00  -1.1264212078352231e-03 1.3755124248177094e-02 0.0000000000000000e+00  1.2950985652380475e-04 1.6503437902288674e-02 0.0000000000000000e+00  4.5053354953074275e-05 1.6515565070424433e-02 0.0000000000000000e+00  1.4343614165321684e-03 1.4671468762217858e-02 0.0000000000000000e+00  7.9769648251128099e-05 1.6437813588369425e-02 0.0000000000000000e+00  -2.9828472233743964e-05 1.6537565224051708e-02 0.0000000000000000e+00  1.6456468617282379e-04 3.6872798408771282e-03 0.0000000000000000e+00  -9.8613589732962116e-05 1.6525324478053736e-02 0.0000000000000000e+00  -5.2226123655640185e-04 1.6398180408301950e-02 0.0000000000000000e+00  -3.2310293758121739e-04 1.5651468874342989e-02 0.0000000000000000e+00  1.2328098030238869e-04 1.4479088828636114e-02 0.0000000000000000e+00  8.4508110899892243e-04 1.6207958102075846e-02 0.0000000000000000e+00  5.4735671197698695e-04 1.6422783257567120e-02 0.0000000000000000e+00  2.6007490046128514e-05 1.6020481491580685e-02 0.0000000000000000e+00  -4.5677451133335600e-05 1.5786427088000723e-02 0.0000000000000000e+00  -1.5915753761080831e-03 1.1355643161205049e-03 0.0000000000000000e+00  1.9432162169317842e-04 1.4047840728942726e-02 0.0000000000000000e+00  5.3012963689930736e-03 1.2085849467248196e-02 0.0000000000000000e+00  6.4423175727031332e-05 1.5554610963834415e-02 0.0000000000000000e+00  2.4302399859697769e-04 1.4294173412752886e-02 0.0000000000000000e+00  7.2067844051471348e-05 1.6480832200757741e-02 0.0000000000000000e+00  1.0150467130792950e-03 1.3627236265933602e-02 0.0000000000000000e+00  5.9394728755639955e-05 1.5881159438684369e-02 0.0000000000000000e+00  -5.2979685469320298e-05 1.5735612879581723e-02 0.0000000000000000e+00  -2.6996514501450593e-04 1.4438689444946589e-02 0.0000000000000000e+00  2.2677296252872592e-04 1.5460538964005840e-02 0.0000000000000000e+00  -4.3701956864846509e-04 5.4746082182829687e-04 0.0000000000000000e+00  -8.4420270409044746e-05 1.5755174169394270e-02 0.0000000000000000e+00  1.1100935521862086e-03 1.6692956532435754e-02 0.0000000000000000e+00  -2.8989925654363906e-05 1.6531310727254504e-02 0.0000000000000000e+00  -5.6936806936066543e-04 1.8985764462717224e-03 0.0000000000000000e+00  -4.8401158157774177e-03 1.5107507433187870e-02 0.0000000000000000e+00  2.2511061225423410e-03 1.5399236436800448e-02 0.0000000000000000e+00  -6.8872157956571540e-04 8.8561935024157271e-03 0.0000000000000000e+00  2.1005918996147515e-05 1.6525384994094089e-02 0.0000000000000000e+00  -3.9688548551525997e-05 1.5726781004251799e-02 0.0000000000000000e+00  -1.5887554331248186e-03 1.4710825968991311e-02 0.0000000000000000e+00  -2.7086041920285005e-04 1.6626700347922255e-02 0.0000000000000000e+00  5.0769680622653142e-05 1.5705514192900380e-02 0.0000000000000000e+00  -9.8839669312900019e-05 1.5487301690216225e-02 0.0000000000000000e+00  1.8714456913886140e-04 1.6363587878957642e-02 0.0000000000000000e+00  3.6415418127773653e-05 1.5425666863372368e-02 0.0000000000000000e+00  -4.4377998878424702e-05 1.5471380886089877e-02 0.0000000000000000e+00  -1.9438906770805669e-04 1.5554357476587580e-02 0.0000000000000000e+00  4.5821681289550924e-03 3.2802795080978881e-03 0.0000000000000000e+00  4.1946134259511334e-04 1.6274346841771790e-02 0.0000000000000000e+00  -2.9682548969018363e-03 1.8474242295207226e-03 0.0000000000000000e+00  7.0392872290289145e-04 1.5760551521713902e-02 0.0000000000000000e+00  2.2120970012002211e-05 1.6507806183229973e-02 0.0000000000000000e+00  4.4490629602902164e-03 1.5256444737813806e-02 0.0000000000000000e+00  -1.4802645823739442e-03 4.4692823312307180e-03 0.0000000000000000e+00  -8.1157690368596335e-04 1.6566343395294891e-02 0.0000000000000000e+00  2.4316066887704220e-05 1.6478832160717299e-02 0.0000000000000000e+00  -3.2848348598967788e-05 1.5443716858642440e-02 0.0000000000000000e+00  -9.2922012569335227e-06 1.6494849839601273e-02 0.0000000000000000e+00  -1.0782701801574737e-05 1.5403123037438278e-02 0.0000000000000000e+00  -6.4007835918871841e-05 1.6552803317733136e-02 0.0000000000000000e+00  2.3618373468900238e-05 1.6537526698472384e-02 0.0000000000000000e+00  -2.7511789430594176e-05 1.6508943031964332e-02 0.0000000000000000e+00  -3.0837231733389350e-05 1.6476641506575559e-02 0.0000000000000000e+00  -1.8548854784875555e-04 8.7894317439059797e-04 0.0000000000000000e+00  -5.3999960264219449e-04 1.6047039138967892e-02 0.0000000000000000e+00  -5.0582997057029521e-04 1.4409388304702807e-02 0.0000000000000000e+00  -8.0385030749201522e-05 1.5219515694479531e-02 0.0000000000000000e+00  7.4537881449505299e-05 1.5946039464401707e-02 0.0000000000000000e+00  -2.3604911806743281e-05 1.5444393679853464e-02 0.0000000000000000e+00  -2.3768861165149020e-04 1.6308587444124115e-02 0.0000000000000000e+00  -1.7040359840216101e-04 1.6568927790438767e-02 0.0000000000000000e+00  -5.5549078735791947e-05 1.6491318998234007e-02 0.0000000000000000e+00  -7.6474943196536946e-05 1.3842794401485099e-02 0.0000000000000000e+00  2.3392982889395523e-05 1.5879005542969917e-02 0.0000000000000000e+00  6.9487910612017656e-05 1.5677831748716405e-02 0.0000000000000000e+00  2.1780856057867252e-03 5.3591080095732888e-03 0.0000000000000000e+00  1.0526832600887392e-03 1.2353517320802053e-02 0.0000000000000000e+00  2.2257939967272396e-04 1.6613138378570962e-02 0.0000000000000000e+00  -2.2775325539419845e-06 1.6487756804988721e-02 0.0000000000000000e+00  1.8669921705777287e-04 8.8100599976620214e-04 0.0000000000000000e+00  1.6492339907479244e-03 7.8867185434275122e-03 0.0000000000000000e+00  -1.6636653148834298e-03 1.6293760081733406e-02 0.000000000000