<?xml version="1.0"?>
<VTKFile type="UnstructuredGrid"  version="0.1"  >
<UnstructuredGrid>
<Piece  NumberOfPoints="853" NumberOfCells="1564">
<Points>
<DataArray  type="Float64"  NumberOfComponents="3"  format="ascii">0 0 0  1 0 0  1 2 0  2 2 0  2 3 0  1 3 0  1 5 0  0 5 0  0.09999999999981467 0 0  0.1999999999995579 0 0  0.2999999999992664 0 0  0.3999999999989749 0 0  0.4999999999986943 0 0  0.5999999999989468 0 0  0.69999999999921 0 0  0.7999999999994734 0 0  0.8999999999997368 0 0  1 0.0999999999997993 0  1 0.1999999999996293 0  1 0.2999999999994072 0  1 0.3999999999991157 0  1 0.4999999999988242 0  1 0.5999999999985328 0  1 0.6999999999982413 0  1 0.7999999999979498 0  1 0.8999999999976585 0  1 0.9999999999973885 0  1 1.09999999999763 0  1 1.199999999997894 0  1 1.299999999998157 0  1 1.39999999999842 0  1 1.499999999998683 0  1 1.599999999998947 0  1 1.69999999999921 0  1 1.799999999999474 0  1 1.899999999999737 0  1.1 2 0  1.2 2 0  1.3 2 0  1.4 2 0  1.5 2 0  1.6 2 0  1.7 2 0  1.8 2 0  1.9 2 0  2 2.1 0  2 2.2 0  2 2.299999999999999 0  2 2.399999999999999 0  2 2.5 0  2 2.6 0  2 2.7 0  2 2.8 0  2 2.9 0  1.9 3 0  1.8 3 0  1.7 3 0  1.6 3 0  1.5 3 0  1.4 3 0  1.3 3 0  1.2 3 0  1.1 3 0  1 3.1 0  1 3.2 0  1 3.299999999999999 0  1 3.399999999999999 0  1 3.499999999999999 0  1 3.599999999999999 0  1 3.699999999999999 0  1 3.799999999999999 0  1 3.899999999999999 0  1 4 0  1 4.1 0  1 4.199999999999999 0  1 4.3 0  1 4.399999999999999 0  1 4.5 0  1 4.6 0  1 4.699999999999999 0  1 4.8 0  1 4.899999999999999 0  0.8999999999995836 5 0  0.7999999999999998 5 0  0.7000000000006934 5 0  0.6000000000013869 5 0  0.5000000000020587 5 0  0.4000000000016644 5 0  0.3000000000012483 5 0  0.2000000000008322 5 0  0.100000000000416 5 0  0 4.899999999999999 0  0 4.8 0  0 4.699999999999999 0  0 4.6 0  0 4.499999999999999 0  0 4.399999999999999 0  0 4.299999999999999 0  0 4.199999999999998 0  0 4.099999999999999 0  0 3.999999999999999 0  0 3.899999999999999 0  0 3.799999999999999 0  0 3.699999999999998 0  0 3.599999999999999 0  0 3.499999999999999 0  0 3.399999999999999 0  0 3.299999999999999 0  0 3.199999999999998 0  0 3.099999999999999 0  0 2.999999999999999 0  0 2.899999999999999 0  0 2.799999999999999 0  0 2.699999999999999 0  0 2.599999999999999 0  0 2.5 0  0 2.399999999999999 0  0 2.299999999999999 0  0 2.199999999999999 0  0 2.1 0  0 2 0  0 1.899999999999999 0  0 1.799999999999999 0  0 1.699999999999999 0  0 1.599999999999999 0  0 1.5 0  0 1.399999999999999 0  0 1.299999999999999 0  0 1.199999999999999 0  0 1.1 0  0 0.9999999999999991 0  0 0.8999999999999995 0  0 0.7999999999999998 0  0 0.7000000000000002 0  0 0.5999999999999996 0  0 0.4999999999999991 0  0 0.3999999999999995 0  0 0.3000000000000007 0  0 0.1999999999999993 0  0 0.09999999999999964 0  0.6166569079913358 2.492277433160826 0  0.496804750005887 0.5479593764091243 0  0.5000000000000001 3.249999999999996 0  0.5010746240977132 4.146233959879961 0  1.15284373704454 2.508044505059064 0  0.5115316434189965 1.955545969082757 0  0.4999999999999211 1.349999999999999 0  0.4689171957673295 3.679717700049328 0  0.5612906571832685 4.583387229041095 0  1.571380248656294 2.43209333797878 0  0.4137140166874343 2.842788829011612 0  0.5924999999992734 0.9499999999993549 0  0.3530983922827606 2.277151253345766 0  0.3374999999999892 1.65000000000002 0  0.6755701284515059 1.666012036452857 0  0.7199661008857956 2.178412873198308 0  0.7334525640603837 2.809285576954712 0  0.3169326937911943 0.8062495868452884 0  0.3138857644565878 4.404201202807377 0  1.409460640835247 2.684430832001214 0  0.6887829815303428 3.902565963060691 0  0.6887829815303437 3.49743403693931 0  0.3083333333329294 0.3083333333329091 0  0.6836117544982274 0.312527457707179 0  0.3168915343039068 1.103810255435239 0  0.3022648077978692 2.555831328112146 0  1.699661159477641 2.699661159477642 0  0.3119190378227792 4.685290485878375 0  0.2857741186203023 3.950276087647296 0  0.2901796187683303 3.455359237536657 0  0.7185169821104359 4.329943392965225 0  1.329943392965171 2.281483017889551 0  0.723334373514972 3.086114578383237 0  0.8872939267661155 2.418951697643693 0  0.2683606383900753 3.107323129784811 0  0.7213259925957727 0.709299358069827 0  0.7248933848217622 1.191311282739447 0  0.9946254212153881 2.725887626364616 0  0.2534599397489012 2.044779020535383 0  0.2472238456272076 1.409843650950396 0  0.7466779594322671 1.891779594322711 0  0.751445254703026 4.751445254703024 0  1.751445254703023 2.248554745296977 0  0.2308928978487501 0.5537472873885254 0  1.08084306636788 2.246658930824796 0  0.7618726449950816 1.428238687173948 0  0.2386599654867296 4.176198813049547 0  0.2277655772754102 3.726664793307169 0  0.7721651484755335 4.113350253753182 0  0.7651749878558429 3.697580220958253 0  0.7656850901336474 3.299617602969102 0  0.4980799523915615 4.792356177625049 0  1.776143433203817 2.501327251062086 0  1.208880242020366 2.780272536786154 0  0.7911996774911533 4.53781383416655 0  1.542032468257247 2.216473886475725 0  0.7821379364211358 0.4969347839607502 0  0.5159796121199893 3.035942476666499 0  0.1994782516945909 2.77487521870957 0  0.2121527327795772 1.820534480974185 0  0.4961068761097068 0.2091473007262267 0  0.8212076849290986 2.630353036209751 0  0.5799159337228276 2.696151511257179 0  0.521656415787208 1.134485020795658 0  0.5198027681168929 0.7515845938922632 0  0.5314469083329 2.149920708093939 0  0.8022340879252141 0.949830582795168 0  0.5153738125904214 4.366355293244797 0  1.369864008384514 2.483509168319498 0  0.493575298272567 3.951867463619321 0  0.4920800561363075 3.451776843677214 0  0.1993224400966551 3.276384038573164 0  0.2040352237160636 2.400557997609325 0  0.504974575031962 1.751372233424674 0  0.499694528062418 1.552255000835086 0  0.1883367598055906 0.9438245084748886 0  0.1955706745794366 4.52834806507854 0  1.537127505356749 2.822707438948337 0  0.4347408457716787 2.442047619826679 0  0.9025073455677252 2.163749048054409 0  0.1773846193758333 1.247310083483254 0  0.1790840974615431 2.196648468506937 0  0.4241221003595179 0.9580937949419669 0  0.5742095764754795 2.324790710904777 0  0.1810593287337392 0.1648759332410678 0  0.830532350559559 0.1714616318750705 0  0.1799849931748815 2.936783687129475 0  0.1700601135178742 1.60121319242071 0  1.834470454079937 2.829637832875926 0  0.1703621671240551 4.83447045408015 0  0.829990552477618 1.736728469669415 0  0.3976185944449355 4.553236496558402 0  1.555161286389273 2.597039871453049 0  0.8411335884160621 2.955436961449523 0  0.6558334436081007 2.021696625357631 0  0.9866801805488914 2.554042320868289 0  0.4842405954457978 0.3674248026875673 0  0.1764810578689407 0.6996979327130011 0  0.5695354616787965 2.867647040045057 0  0.627187487409925 3.659501677082119 0  0.1696270647651137 0.3969694240763386 0  0.1588761645418826 3.579667620980887 0  0.3504882684591691 1.27320675399182 0  0.1613150679413317 4.323270191935268 0  0.8439697987258331 3.850137374173121 0  0.8582592809978382 3.556895103851285 0  1.2205291243602 2.169320339907971 0  0.8274853269315643 1.578104600362255 0  1.35480687481049 2.843927765640049 0  0.3677577894563876 1.843336837909973 0  0.3739468553634951 0.650971017289567 0  0.8175350952416559 2.032763453059245 0  1.255052217924463 2.621284633706947 0  0.6275139014702615 3.348445849128012 0  0.3500097682353719 0.1540209779916574 0  0.8470720720723232 0.3499999999992615 0  0.6516218900422024 0.1543745010121346 0  0.1570362925186822 4.034940931583384 0  0.6259846398323782 4.050387381032598 0  0.6243837498547334 0.4550390732635957 0  0.3764337664925781 4.252429701173535 0  0.3638240662285239 4.845889022715784 0  1.841058165929382 2.650192415774816 0  0.3538129642253492 3.310506091581767 0  0.3972635403128369 2.692091228217206 0  0.1493546974812203 3.864275696990799 0  0.8353411562925317 1.295894841996498 0  0.8510640038578493 4.24376876336904 0  0.3274183905250344 3.60709353923235 0  0.5690599951287177 3.803379429947107 0  0.3608465922823166 4.079737353610348 0  0.1464953658605303 2.61946161625165 0  0.8522365706696342 1.101349250004825 0  0.8462743532452005 0.8012074197151465 0  1.200278576701711 2.350961992006298 0  0.7326508832134601 2.394973662719556 0  0.6648495127067672 1.330201720826574 0  0.6421476239135478 4.851671120026346 0  1.851998954991891 2.359839578227697 0  1.041233083983184 2.39820467647697 0  0.8526824909154477 3.164884108363255 0  0.3803758752537028 2.126429281492964 0  0.6420376057736918 4.200165882518018 0  0.8501088759525246 4.401734271500779 0  1.398058673633662 2.147688933973308 0  0.8545605983512565 0.6343835319818829 0  1.072584152252426 2.853228937916825 0  0.8462674517070675 4.851971641280215 0  1.853403041422536 2.15097879283758 0  0.3930760976266651 3.836742518240063 0  0.1459746256495623 1.094533214558924 0  0.1449604950589468 3.41641374300675 0  0.360147239891959 1.507070948822289 0  0.1371791188132176 3.14627243933882 0  0.1373781948221472 1.948699496915061 0  0.8787091687571863 2.813528399808599 0  0.640346663916172 3.202454813230568 0  0.1447898426935465 4.687821488540191 0  1.681222862898315 2.858606263227755 0  0.6057151088165942 1.858748550906064 0  0.6959087423316198 1.05023956637574 0  0.6929156491439609 0.8504350871602226 0  0.3804448021156934 2.991689533004409 0  0.4069998378428982 3.136829475620725 0  0.6221516319980132 1.461574324140038 0  0.8595221684437686 4.671970471025065 0  1.655041305862432 2.135199824735708 0  0.8397218722524009 3.992237826182404 0  0.6648391028671355 4.465773104071535 0  1.462522756387578 2.335702451268775 0  1.107872485384334 2.648667416202137 0  0.6412014890654342 0.5971222632485688 0  0.8285592833177335 2.286311487886619 0  0.4769010664620999 2.574488224117733 0  0.3384926303571551 0.445684366822149 0  0.622529668465069 4.711696333659297 0  1.70347020696268 2.379656531207025 0  0.673413754958227 2.634174081826437 0  0.8424185362726981 3.41410212582428 0  0.1496314029302428 1.699903720635713 0  0.6712113209446312 2.961657242108266 0  0.1318402597280083 0.83835
[...]
<PointData  Vectors="f_15"> 
<DataArray  type="Float64"  Name="f_15"  NumberOfComponents="3" format="ascii">4.2471552568064758e-08 1.6523906420493593e-03 0.0000000000000000e+00  3.8161754208674179e-08 1.6541102689343749e-03 0.0000000000000000e+00  7.8958330057637928e-04 1.4404815125283617e-03 0.0000000000000000e+00  2.2492249860025120e-05 2.3070783678647259e-05 0.0000000000000000e+00  -1.8567334896704437e-05 2.0031890709488179e-05 0.0000000000000000e+00  -7.8583996287460143e-04 1.4487217171641226e-03 0.0000000000000000e+00  -4.0326052352795062e-08 1.6542383597938533e-03 0.0000000000000000e+00  -3.6776822526641069e-08 1.6524371368642412e-03 0.0000000000000000e+00  8.3374595215472864e-08 1.6524666601014698e-03 0.0000000000000000e+00  1.2348529244278689e-07 1.6525736871407085e-03 0.0000000000000000e+00  1.5473027696901785e-07 1.6527734519784488e-03 0.0000000000000000e+00  2.1544063784612721e-07 1.6529925502137750e-03 0.0000000000000000e+00  1.9009343197200348e-07 1.6532840434324494e-03 0.0000000000000000e+00  2.2386287448716625e-07 1.6535173187644816e-03 0.0000000000000000e+00  1.4853409873649743e-07 1.6537288372135506e-03 0.0000000000000000e+00  1.3308845815229705e-07 1.6539696687306294e-03 0.0000000000000000e+00  8.1970921368314719e-08 1.6540828914866172e-03 0.0000000000000000e+00  8.3326352893745988e-08 1.6542091060041614e-03 0.0000000000000000e+00  1.2042836495192842e-07 1.6544055457764050e-03 0.0000000000000000e+00  2.1343785553313967e-07 1.6545749154624442e-03 0.0000000000000000e+00  2.7819641277908158e-07 1.6551357923752321e-03 0.0000000000000000e+00  4.4830685108234514e-07 1.6554788671683536e-03 0.0000000000000000e+00  5.4256282674804734e-07 1.6561983641087679e-03 0.0000000000000000e+00  6.2406521170905816e-07 1.6574461477771492e-03 0.0000000000000000e+00  1.2052138019880211e-06 1.6583647701070342e-03 0.0000000000000000e+00  1.1916479424658203e-06 1.6606147396578518e-03 0.0000000000000000e+00  2.0155087657512131e-06 1.6641703315277881e-03 0.0000000000000000e+00  3.2731371218226006e-06 1.6676353280772342e-03 0.0000000000000000e+00  4.4625771269556739e-06 1.6731930625874319e-03 0.0000000000000000e+00  6.4521706681909370e-06 1.6839098067658132e-03 0.0000000000000000e+00  9.8216952227309701e-06 1.6945864438425899e-03 0.0000000000000000e+00  1.6985500537539162e-05 1.7127577647875754e-03 0.0000000000000000e+00  2.5390118234465712e-05 1.7464892026538054e-03 0.0000000000000000e+00  5.1225485868359473e-05 1.7898292826863196e-03 0.0000000000000000e+00  1.2544023907563818e-04 1.8542046515833139e-03 0.0000000000000000e+00  4.3330769540431352e-04 1.9445060022781457e-03 0.0000000000000000e+00  1.0558274327816407e-03 6.0985587058163062e-04 0.0000000000000000e+00  7.7689474778618983e-04 1.9971117378519594e-04 0.0000000000000000e+00  4.7763570060655076e-04 1.2810883501692010e-04 0.0000000000000000e+00  3.1875415352864718e-04 8.4570718237646209e-05 0.0000000000000000e+00  2.2644211696488443e-04 5.8621849299082498e-05 0.0000000000000000e+00  1.7805999449926110e-04 3.5615285256635394e-05 0.0000000000000000e+00  1.0348933732992595e-04 3.0189712758262240e-05 0.0000000000000000e+00  7.8556277650591630e-05 2.2906808504997473e-05 0.0000000000000000e+00  3.6360391842186273e-05 2.1747048093567998e-05 0.0000000000000000e+00  1.7450727075641163e-05 3.5942799517829291e-05 0.0000000000000000e+00  1.4945736625935984e-05 6.7235995790079994e-05 0.0000000000000000e+00  9.1390683622878410e-06 8.1067656649233443e-05 0.0000000000000000e+00  5.9999492517942060e-06 9.9575355516780587e-05 0.0000000000000000e+00  4.8151343480624142e-07 1.0410503507534562e-04 0.0000000000000000e+00  -7.2186058002667862e-06 1.0220051176582510e-04 0.0000000000000000e+00  -1.0511307996990428e-05 8.3776081351488567e-05 0.0000000000000000e+00  -1.6754256344677845e-05 6.9195552574699014e-05 0.0000000000000000e+00  -1.9677512846389391e-05 3.9229104745613001e-05 0.0000000000000000e+00  -3.5298113056828053e-05 2.3100428987047354e-05 0.0000000000000000e+00  -7.9510917838764223e-05 2.5124572317435209e-05 0.0000000000000000e+00  -1.0194829146655492e-04 3.1825325764077519e-05 0.0000000000000000e+00  -1.6730605111763968e-04 4.4525865958001268e-05 0.0000000000000000e+00  -2.6750692367115100e-04 5.5349198105712439e-05 0.0000000000000000e+00  -3.2865627328758747e-04 8.7642864015392475e-05 0.0000000000000000e+00  -5.2394566422096626e-04 1.1715527029174581e-04 0.0000000000000000e+00  -6.9425129443269980e-04 2.3543523952792705e-04 0.0000000000000000e+00  -1.0508392472384504e-03 6.4214935679597022e-04 0.0000000000000000e+00  -3.9864023095522745e-04 1.9485081909790770e-03 0.0000000000000000e+00  -1.3280404595536141e-04 1.8454410191105575e-03 0.0000000000000000e+00  -4.3298328896840018e-05 1.7946282453246726e-03 0.0000000000000000e+00  -2.5665308135446814e-05 1.7374565640495845e-03 0.0000000000000000e+00  -1.1988965239827927e-05 1.7141640828793846e-03 0.0000000000000000e+00  -9.1907980974644522e-06 1.6917209881189316e-03 0.0000000000000000e+00  -7.0310370527371603e-06 1.6823370308197119e-03 0.0000000000000000e+00  -4.1523454512168496e-06 1.6749990860422269e-03 0.0000000000000000e+00  -3.2123538626504790e-06 1.6673289818672095e-03 0.0000000000000000e+00  -2.4087526939244843e-06 1.6644439409176819e-03 0.0000000000000000e+00  -1.6430423531918021e-06 1.6608897283764659e-03 0.0000000000000000e+00  -9.3225895681072862e-07 1.6591318105911520e-03 0.0000000000000000e+00  -7.5074516221431670e-07 1.6572217499184216e-03 0.0000000000000000e+00  -5.9034938278727580e-07 1.6564212479278700e-03 0.0000000000000000e+00  -4.3160414405579022e-07 1.6554694572552704e-03 0.0000000000000000e+00  -2.3895501030799931e-07 1.6550135657454764e-03 0.0000000000000000e+00  -2.0334116118068658e-07 1.6545480804061625e-03 0.0000000000000000e+00  -9.4859623796931001e-08 1.6544015810911685e-03 0.0000000000000000e+00  -6.6037543690657611e-08 1.6542392057000514e-03 0.0000000000000000e+00  -6.3570970739657642e-08 1.6541366268344143e-03 0.0000000000000000e+00  -1.1134573130089290e-07 1.6540096003152553e-03 0.0000000000000000e+00  -1.3706613861861571e-07 1.6537948320803565e-03 0.0000000000000000e+00  -1.7149996097613801e-07 1.6536001707916190e-03 0.0000000000000000e+00  -1.8505131202160127e-07 1.6533253577657244e-03 0.0000000000000000e+00  -1.9892229650300536e-07 1.6530497328294607e-03 0.0000000000000000e+00  -1.6254966649705846e-07 1.6528459080660124e-03 0.0000000000000000e+00  -1.2766302000274205e-07 1.6526016241421844e-03 0.0000000000000000e+00  -8.1144772397378225e-08 1.6525077875177813e-03 0.0000000000000000e+00  -7.5717480145602909e-08 1.6523968339586205e-03 0.0000000000000000e+00  -1.1376464384380667e-07 1.6522257576150011e-03 0.0000000000000000e+00  -2.0048227469303087e-07 1.6520652929288789e-03 0.0000000000000000e+00  -3.1242077363311799e-07 1.6516143395407729e-03 0.0000000000000000e+00  -5.0448452708616039e-07 1.6510474983054150e-03 0.0000000000000000e+00  -5.6493634140830862e-07 1.6505586260204986e-03 0.0000000000000000e+00  -7.5476136097264272e-07 1.6492402301418571e-03 0.0000000000000000e+00  -1.1291677016367212e-06 1.6477942926334875e-03 0.0000000000000000e+00  -1.3707670138940699e-06 1.6464131287377277e-03 0.0000000000000000e+00  -1.6898872731948750e-06 1.6429661525281763e-03 0.0000000000000000e+00  -2.6575975508410745e-06 1.6407171623559408e-03 0.0000000000000000e+00  -2.9845787373044652e-06 1.6347676596400397e-03 0.0000000000000000e+00  -4.6915749399996555e-06 1.6306649998727237e-03 0.0000000000000000e+00  -5.4663911542318488e-06 1.6236689389764157e-03 0.0000000000000000e+00  -6.4347071711892181e-06 1.6123594244262084e-03 0.0000000000000000e+00  -7.7255922730517745e-06 1.5978434789866445e-03 0.0000000000000000e+00  -9.9662351577086277e-06 1.5835040566317255e-03 0.0000000000000000e+00  -1.0299709761244187e-05 1.5724680368962882e-03 0.0000000000000000e+00  -1.1631075177114055e-05 1.5464474407094250e-03 0.0000000000000000e+00  -1.3107488381647870e-05 1.5343590157839207e-03 0.0000000000000000e+00  -1.3923086300129029e-05 1.5077227700430295e-03 0.0000000000000000e+00  -9.9797721782844695e-06 1.4941443527599794e-03 0.0000000000000000e+00  -8.5933598333748418e-06 1.4838407874208741e-03 0.0000000000000000e+00  -4.6257389073015626e-06 1.4735913834257907e-03 0.0000000000000000e+00  5.2561869050542099e-07 1.4713271005408913e-03 0.0000000000000000e+00  2.7655280765038421e-06 1.4733128824109727e-03 0.0000000000000000e+00  6.3501423498855600e-06 1.4841781028584369e-03 0.0000000000000000e+00  1.1175802175311904e-05 1.4947237173536312e-03 0.0000000000000000e+00  1.3428008676843944e-05 1.5126358885077403e-03 0.0000000000000000e+00  1.1899892923148825e-05 1.5331869462363230e-03 0.0000000000000000e+00  1.0668717636992210e-05 1.5547441729520412e-03 0.0000000000000000e+00  1.0719256466757819e-05 1.5666962330830704e-03 0.0000000000000000e+00  1.0173930266070311e-05 1.5860031362932539e-03 0.0000000000000000e+00  8.7299870998920207e-06 1.6012422604664758e-03 0.0000000000000000e+00  8.4559906504398521e-06 1.6149005224781738e-03 0.0000000000000000e+00  6.4936126996348092e-06 1.6225147872045637e-03 0.0000000000000000e+00  5.3290640166496491e-06 1.6282264331417004e-03 0.0000000000000000e+00  3.7427583587457036e-06 1.6363667091828817e-03 0.0000000000000000e+00  2.5300383034833082e-06 1.6390032486716104e-03 0.0000000000000000e+00  2.1343868031085891e-06 1.6437515227693438e-03 0.0000000000000000e+00  1.1954433434968391e-06 1.6461933367103343e-03 0.0000000000000000e+00  9.1545310400447243e-07 1.6483176937269715e-03 0.0000000000000000e+00  8.2666130065198622e-07 1.6493145805284303e-03 0.0000000000000000e+00  6.2804438236632769e-07 1.6504821233489788e-03 0.0000000000000000e+00  4.3416575883089575e-07 1.6510788916230953e-03 0.0000000000000000e+00  3.1820339101619812e-07 1.6515967156856435e-03 0.0000000000000000e+00  2.2182197573172749e-07 1.6520829296068464e-03 0.0000000000000000e+00  1.2852962995789180e-07 1.6522568367730453e-03 0.0000000000000000e+00  1.0055914859311684e-07 1.6523405976897310e-03 0.0000000000000000e+00  5.3850380063566738e-06 1.3204758772242255e-03 0.0000000000000000e+00  2.3217017466985535e-06 1.6531604324862613e-03 0.0000000000000000e+00  -9.1386386401075750e-05 1.6147593375305980e-03 0.0000000000000000e+00  -6.5374970109120872e-06 1.6531799766473854e-03 0.0000000000000000e+00  -1.4269835851096829e-05 6.4106225095297506e-04 0.0000000000000000e+00  1.2857434109308323e-04 1.5465242337963951e-03 0.0000000000000000e+00  2.9174872028702122e-05 1.6486449902801919e-03 0.0000000000000000e+00  -2.7426908518834032e-05 1.6481994536271520e-03 0.0000000000000000e+00  -1.4141505383141066e-06 1.6536417175461986e-03 0.0000000000000000e+00  4.3040256272920109e-05 1.9525164628033471e-04 0.0000000000000000e+00  -9.5611989005073004e-05 1.4714587111820953e-03 0.0000000000000000e+00  8.2562180341378925e-06 1.6559810895036247e-03 0.0000000000000000e+00  5.3766216808473931e-05 1.4540036763484813e-03 0.0000000000000000e+00  5.2061029004535896e-05 1.6075573868907353e-03 0.0000000000000000e+00  9.0233337325491299e-05 1.6742497072026110e-03 0.0000000000000000e+00  2.5109398040827901e-04 1.3929612426431819e-03 0.0000000000000000e+00  -2.5486110968801410e-04 1.3709348095901025e-03 0.0000000000000000e+00  4.8691243866241361e-06 1.6502874591375919e-03 0.0000000000000000e+00  -2.1434250108886993e-06 1.6517531297045188e-03 0.0000000000000000e+00  -1.5815416032263104e-04 2.7355583787484441e-04 0.0000000000000000e+00  -1.2138743669461157e-05 1.6606084070968574e-03 0.0000000000000000e+00  -4.8152889438393375e-05 1.6738409049365281e-03 0.0000000000000000e+00  8.0757331354327695e-07 1.6526218338730506e-03 0.0000000000000000e+00  7.9751055584823780e-07 1.6540195695419547e-03 0.0000000000000000e+00  1.1749386061990059e-05 1.6452851657163994e-03 0.0000000000000000e+00  -1.1251073751958475e-05 1.4429183775666805e-03 0.0000000000000000e+00  -6.4651522717889320e-05 1.2463952629285585e-04 0.0000000000000000e+00  -8.1948671236248100e-07 1.6525999261921399e-03 0.0000000000000000e+00  -9.0141266740663479e-06 1.6458409129081490e-03 0.0000000000000000e+00  -3.4257761092324276e-05 1.6186072006607441e-03 0.0000000000000000e+00  -2.8213437550379877e-06 1.6555027418662881e-03 0.0000000000000000e+00  2.2929761288124537e-04 3.5014542157364096e-04 0.0000000000000000e+00  -2.2660632038977460e-04 1.6388624683869348e-03 0.0000000000000000e+00  1.0801659760003110e-04 1.0591553025975059e-03 0.0000000000000000e+00  -5.5306229569371951e-05 1.5559197099305681e-03 0.0000000000000000e+00  3.0731292133352483e-06 1.6559554966062886e-03 0.0000000000000000e+00  1.6021176571338254e-05 1.6648831839003659e-03 0.0000000000000000e+00  -3.2630735426419119e-04 9.3127985075960439e-04 0.0000000000000000e+00  5.6148020165043509e-05 1.5229481357151708e-03 0.0000000000000000e+00  1.9284801782773570e-05 1.6255574264408097e-03 0.0000000000000000e+00  2.4060325457875233e-04 1.6937878388865876e-03 0.0000000000000000e+00  -5.6709091269475157e-07 1.6541249834096448e-03 0.0000000000000000e+00  6.2212236553989904e-05 9.7230536829366403e-05 0.0000000000000000e+00  1.6773311667647507e-06 1.6512868541406758e-03 0.0000000000000000e+00  4.9829335396608422e-04 7.5779413454477149e-04 0.0000000000000000e+00  3.2020895561573306e-05 1.6805148852158907e-03 0.0000000000000000e+00  -3.9867607306429490e-06 1.6491689466593058e-03 0.0000000000000000e+00  -1.4346720288016700e-05 1.6364624323946552e-03 0.0000000000000000e+00  -5.0448366287456938e-06 1.6586366976279953e-03 0.0000000000000000e+00  -2.1388297825323440e-05 1.6734218743548804e-03 0.0000000000000000e+00  -1.0895368298102312e-04 1.7098486597362779e-03 0.0000000000000000e+00  -6.1548082621110452e-07 1.6532927301461920e-03 0.0000000000000000e+00  -2.6397412676119646e-06 1.3093802332591923e-04 0.0000000000000000e+00  -4.3094887642143646e-04 4.9226095664232331e-04 0.0000000000000000e+00  -1.2102039317309696e-06 1.6549405375809966e-03 0.0000000000000000e+00  1.4771343486653070e-04 1.4573061688632100e-04 0.0000000000000000e+00  1.3727409644360927e-06 1.6549881079881263e-03 0.0000000000000000e+00  -1.3529404439075973e-04 1.5432224537586714e-03 0.0000000000000000e+00  -3.1529599397515823e-05 1.4833276172386682e-03 0.0000000000000000e+00  4.0688566307215729e-05 1.5707071365584483e-03 0.0000000000000000e+00  5.6407250055437916e-07 1.6533214161855803e-03 0.0000000000000000e+00  -1.6385688854014477e-04 1.1374707508586275e-03 0.0000000000000000e+00  -1.1114887439611824e-04 1.3756011176484643e-03 0.0000000000000000e+00  1.5556369038857332e-05 1.6531182893943996e-03 0.0000000000000000e+00  4.6901369209641948e-06 1.6534672130671063e-03 0.0000000000000000e+00  1.4373885979061303e-04 1.4650921650376048e-03 0.0000000000000000e+00  5.2937013839330570e-06 1.6603888154434882e-03 0.0000000000000000e+00  -3.4308377290233444e-06 1.6533684050618624e-03 0.0000000000000000e+00  1.6630794004810507e-05 3.8975371787540762e-04 0.0000000000000000e+00  -1.1683586409016612e-05 1.6526076461450419e-03 0.0000000000000000e+00  -5.5889349020303936e-05 1.6389757258837131e-03 0.0000000000000000e+00  -3.4814469710810200e-05 1.5870927748541882e-03 0.0000000000000000e+00  1.4540532638011531e-05 1.4606587959395099e-03 0.0000000000000000e+00  8.7786750520901492e-05 1.6193094328329808e-03 0.0000000000000000e+00  5.9004054425269988e-05 1.6420296530372206e-03 0.0000000000000000e+00  4.4482999974465093e-06 1.6465466225442731e-03 0.0000000000000000e+00  -9.9830022607603138e-07 1.6516999933740477e-03 0.0000000000000000e+00  -1.7849525004501272e-04 1.2856254686609332e-04 0.0000000000000000e+00  1.9847008589236430e-05 1.4071809987469502e-03 0.0000000000000000e+00  5.1331059292988423e-04 1.2317050722109894e-03 0.0000000000000000e+00  9.7497765278493355e-06 1.6360512364156877e-03 0.0000000000000000e+00  2.8946995289672998e-05 1.4906017850298016e-03 0.0000000000000000e+00  8.7447918604026492e-06 1.6510424982951275e-03 0.0000000000000000e+00  1.0060875537783156e-04 1.3646651393896478e-03 0.0000000000000000e+00  2.4566030972664940e-07 1.6524226120407806e-03 0.0000000000000000e+00  2.5452013662391970e-07 1.6541721706611961e-03 0.0000000000000000e+00  -3.4811487379309480e-05 1.5209828497582238e-03 0.0000000000000000e+00  2.4708954257207563e-05 1.6042737588763771e-03 0.0000000000000000e+00  -5.1744812455244640e-05 6.4944405840635953e-05 0.0000000000000000e+00  -2.8753429575508651e-07 1.6524562747109958e-03 0.0000000000000000e+00  1.1957560011977923e-04 1.7563610786733635e-03 0.0000000000000000e+00  -1.5909149636571310e-06 1.6527184548596012e-03 0.0000000000000000e+00  -6.0638789912196015e-05 2.0293290926485288e-04 0.0000000000000000e+00  -4.9067075663569780e-04 1.5527326461530606e-03 0.0000000000000000e+00  2.2624702936973730e-04 1.5346372257809893e-03 0.0000000000000000e+00  -6.4877785355207999e-05 9.0206780737490965e-04 0.0000000000000000e+00  1.2746499297187068e-06 1.6532427206434736e-03 0.0000000000000000e+00  1.9722950376771751e-06 1.6498670026383389e-03 0.0000000000000000e+00  -1.5788302206084620e-04 1.4667140829162004e-03 0.0000000000000000e+00  -2.9638924514338156e-05 1.6636744840083316e-03 0.0000000000000000e+00  6.8925797711692415e-07 1.6519112575641257e-03 0.0000000000000000e+00  -1.4516135831531923e-05 1.6228673746487435e-03 0.0000000000000000e+00  2.1376667183111628e-05 1.6393567416991281e-03 0.0000000000000000e+00  -1.7195103059771512e-06 1.6499159961239564e-03 0.0000000000000000e+00  -8.2753512572394318e-06 1.6686701594938859e-03 0.0000000000000000e+00  -2.0859016085766194e-05 1.6959277218454446e-03 0.0000000000000000e+00  4.9738457747186093e-04 3.6607862706111293e-04 0.0000000000000000e+00  4.9544019421047302e-05 1.7137644170913721e-03 0.0000000000000000e+00  -3.3485792454107638e-04 2.1333901802944434e-04 0.0000000000000000e+00  7.3069597178687226e-05 1.5747609445523941e-03 0.0000000000000000e+00  3.1490610683760147e-06 1.6518175408703174e-03 0.0000000000000000e+00  4.5768797822108619e-04 1.5760283945495876e-03 0.0000000000000000e+00  -1.4811071428426457e-04 4.6824580008287918e-04 0.0000000000000000e+00  -8.7248632021143715e-05 1.6552677091358240e-03 0.0000000000000000e+00  3.8461332529852352e-07 1.6528349922073993e-03 0.0000000000000000e+00  5.1981955940667046e-07 1.6546066796217234e-03 0.0000000000000000e+00  4.0850903517942825e-07 1.6537627485965847e-03 0.0000000000000000e+00  -3.8995114442771349e-06 1.6456692680770822e-03 0.0000000000000000e+00  -8.2285364449765304e-06 1.6569115475848744e-03 0.0000000000000000e+00  1.6398577921104721e-06 1.6540066636725529e-03 0.0000000000000000e+00  -4.2104971662523970e-06 1.6514240320010592e-03 0.0000000000000000e+00  -4.2201991556008643e-07 1.6528733797733692e-03 0.0000000000000000e+00  -2.1501000817810371e-05 1.0237029051675181e-04 0.0000000000000000e+00  -5.6362586463680706e-05 1.6042074928395947e-03 0.0000000000000000e+00  -5.1535601178094685e-05 1.4428885430700876e-03 0.0000000000000000e+00  -6.1831375999943200e-06 1.6404335794120513e-03 0.0000000000000000e+00  1.4858714329438212e-05 1.6767085809928953e-03 0.0000000000000000e+00  -1.9591915563914297e-06 1.6576095977555031e-03 0.0000000000000000e+00  -2.7357699308972186e-05 1.6326251804056377e-03 0.0000000000000000e+00  -1.9405517345476955e-05 1.6568621118882535e-03 0.0000000000000000e+00  -7.1295917096091783e-06 1.6499179919762059e-03 0.0000000000000000e+00  -8.5458680793970684e-06 1.4690344152374546e-03 0.0000000000000000e+00  7.2211632289505103e-06 1.6662472402708211e-03 0.0000000000000000e+00  2.6782130069859633e-06 1.6581333554744671e-03 0.0000000000000000e+00  2.2084970439203004e-04 5.6132911298130926e-04 0.0000000000000000e+00  1.0320824278783390e-04 1.2409148129232290e-03 0.0000000000000000e+00  2.7207911619382849e-05 1.6653790680880888e-03 0.0000000000000000e+00  -3.6685947739207350e-07 1.6537508644110729e-03 0.0000000000000000e+00  2.1281772702419897e-05 1.0087568820187038e-04 0.0000000000000000e+00  1.6161115515859762e-04 8.0871994421210006e-04 0.0000000000000000e+00  -2.0082154322870931e-04 1.7768566255563685e-03 0.0000000000000000e+00  8.6626327299753537e-05 1.4925378118227795e-03 0.0000000000000000e+00  -5.095583629