<?xml version="1.0"?>
<VTKFile type="UnstructuredGrid"  version="0.1"  >
<UnstructuredGrid>
<Piece  NumberOfPoints="853" NumberOfCells="1564">
<Points>
<DataArray  type="Float64"  NumberOfComponents="3"  format="ascii">0 0 0  1 0 0  1 2 0  2 2 0  2 3 0  1 3 0  1 5 0  0 5 0  0.09999999999981467 0 0  0.1999999999995579 0 0  0.2999999999992664 0 0  0.3999999999989749 0 0  0.4999999999986943 0 0  0.5999999999989468 0 0  0.69999999999921 0 0  0.7999999999994734 0 0  0.8999999999997368 0 0  1 0.0999999999997993 0  1 0.1999999999996293 0  1 0.2999999999994072 0  1 0.3999999999991157 0  1 0.4999999999988242 0  1 0.5999999999985328 0  1 0.6999999999982413 0  1 0.7999999999979498 0  1 0.8999999999976585 0  1 0.9999999999973885 0  1 1.09999999999763 0  1 1.199999999997894 0  1 1.299999999998157 0  1 1.39999999999842 0  1 1.499999999998683 0  1 1.599999999998947 0  1 1.69999999999921 0  1 1.799999999999474 0  1 1.899999999999737 0  1.1 2 0  1.2 2 0  1.3 2 0  1.4 2 0  1.5 2 0  1.6 2 0  1.7 2 0  1.8 2 0  1.9 2 0  2 2.1 0  2 2.2 0  2 2.299999999999999 0  2 2.399999999999999 0  2 2.5 0  2 2.6 0  2 2.7 0  2 2.8 0  2 2.9 0  1.9 3 0  1.8 3 0  1.7 3 0  1.6 3 0  1.5 3 0  1.4 3 0  1.3 3 0  1.2 3 0  1.1 3 0  1 3.1 0  1 3.2 0  1 3.299999999999999 0  1 3.399999999999999 0  1 3.499999999999999 0  1 3.599999999999999 0  1 3.699999999999999 0  1 3.799999999999999 0  1 3.899999999999999 0  1 4 0  1 4.1 0  1 4.199999999999999 0  1 4.3 0  1 4.399999999999999 0  1 4.5 0  1 4.6 0  1 4.699999999999999 0  1 4.8 0  1 4.899999999999999 0  0.8999999999995836 5 0  0.7999999999999998 5 0  0.7000000000006934 5 0  0.6000000000013869 5 0  0.5000000000020587 5 0  0.4000000000016644 5 0  0.3000000000012483 5 0  0.2000000000008322 5 0  0.100000000000416 5 0  0 4.899999999999999 0  0 4.8 0  0 4.699999999999999 0  0 4.6 0  0 4.499999999999999 0  0 4.399999999999999 0  0 4.299999999999999 0  0 4.199999999999998 0  0 4.099999999999999 0  0 3.999999999999999 0  0 3.899999999999999 0  0 3.799999999999999 0  0 3.699999999999998 0  0 3.599999999999999 0  0 3.499999999999999 0  0 3.399999999999999 0  0 3.299999999999999 0  0 3.199999999999998 0  0 3.099999999999999 0  0 2.999999999999999 0  0 2.899999999999999 0  0 2.799999999999999 0  0 2.699999999999999 0  0 2.599999999999999 0  0 2.5 0  0 2.399999999999999 0  0 2.299999999999999 0  0 2.199999999999999 0  0 2.1 0  0 2 0  0 1.899999999999999 0  0 1.799999999999999 0  0 1.699999999999999 0  0 1.599999999999999 0  0 1.5 0  0 1.399999999999999 0  0 1.299999999999999 0  0 1.199999999999999 0  0 1.1 0  0 0.9999999999999991 0  0 0.8999999999999995 0  0 0.7999999999999998 0  0 0.7000000000000002 0  0 0.5999999999999996 0  0 0.4999999999999991 0  0 0.3999999999999995 0  0 0.3000000000000007 0  0 0.1999999999999993 0  0 0.09999999999999964 0  0.6166569079913358 2.492277433160826 0  0.496804750005887 0.5479593764091243 0  0.5000000000000001 3.249999999999996 0  0.5010746240977132 4.146233959879961 0  1.15284373704454 2.508044505059064 0  0.5115316434189965 1.955545969082757 0  0.4999999999999211 1.349999999999999 0  0.4689171957673295 3.679717700049328 0  0.5612906571832685 4.583387229041095 0  1.571380248656294 2.43209333797878 0  0.4137140166874343 2.842788829011612 0  0.5924999999992734 0.9499999999993549 0  0.3530983922827606 2.277151253345766 0  0.3374999999999892 1.65000000000002 0  0.6755701284515059 1.666012036452857 0  0.7199661008857956 2.178412873198308 0  0.7334525640603837 2.809285576954712 0  0.3169326937911943 0.8062495868452884 0  0.3138857644565878 4.404201202807377 0  1.409460640835247 2.684430832001214 0  0.6887829815303428 3.902565963060691 0  0.6887829815303437 3.49743403693931 0  0.3083333333329294 0.3083333333329091 0  0.6836117544982274 0.312527457707179 0  0.3168915343039068 1.103810255435239 0  0.3022648077978692 2.555831328112146 0  1.699661159477641 2.699661159477642 0  0.3119190378227792 4.685290485878375 0  0.2857741186203023 3.950276087647296 0  0.2901796187683303 3.455359237536657 0  0.7185169821104359 4.329943392965225 0  1.329943392965171 2.281483017889551 0  0.723334373514972 3.086114578383237 0  0.8872939267661155 2.418951697643693 0  0.2683606383900753 3.107323129784811 0  0.7213259925957727 0.709299358069827 0  0.7248933848217622 1.191311282739447 0  0.9946254212153881 2.725887626364616 0  0.2534599397489012 2.044779020535383 0  0.2472238456272076 1.409843650950396 0  0.7466779594322671 1.891779594322711 0  0.751445254703026 4.751445254703024 0  1.751445254703023 2.248554745296977 0  0.2308928978487501 0.5537472873885254 0  1.08084306636788 2.246658930824796 0  0.7618726449950816 1.428238687173948 0  0.2386599654867296 4.176198813049547 0  0.2277655772754102 3.726664793307169 0  0.7721651484755335 4.113350253753182 0  0.7651749878558429 3.697580220958253 0  0.7656850901336474 3.299617602969102 0  0.4980799523915615 4.792356177625049 0  1.776143433203817 2.501327251062086 0  1.208880242020366 2.780272536786154 0  0.7911996774911533 4.53781383416655 0  1.542032468257247 2.216473886475725 0  0.7821379364211358 0.4969347839607502 0  0.5159796121199893 3.035942476666499 0  0.1994782516945909 2.77487521870957 0  0.2121527327795772 1.820534480974185 0  0.4961068761097068 0.2091473007262267 0  0.8212076849290986 2.630353036209751 0  0.5799159337228276 2.696151511257179 0  0.521656415787208 1.134485020795658 0  0.5198027681168929 0.7515845938922632 0  0.5314469083329 2.149920708093939 0  0.8022340879252141 0.949830582795168 0  0.5153738125904214 4.366355293244797 0  1.369864008384514 2.483509168319498 0  0.493575298272567 3.951867463619321 0  0.4920800561363075 3.451776843677214 0  0.1993224400966551 3.276384038573164 0  0.2040352237160636 2.400557997609325 0  0.504974575031962 1.751372233424674 0  0.499694528062418 1.552255000835086 0  0.1883367598055906 0.9438245084748886 0  0.1955706745794366 4.52834806507854 0  1.537127505356749 2.822707438948337 0  0.4347408457716787 2.442047619826679 0  0.9025073455677252 2.163749048054409 0  0.1773846193758333 1.247310083483254 0  0.1790840974615431 2.196648468506937 0  0.4241221003595179 0.9580937949419669 0  0.5742095764754795 2.324790710904777 0  0.1810593287337392 0.1648759332410678 0  0.830532350559559 0.1714616318750705 0  0.1799849931748815 2.936783687129475 0  0.1700601135178742 1.60121319242071 0  1.834470454079937 2.829637832875926 0  0.1703621671240551 4.83447045408015 0  0.829990552477618 1.736728469669415 0  0.3976185944449355 4.553236496558402 0  1.555161286389273 2.597039871453049 0  0.8411335884160621 2.955436961449523 0  0.6558334436081007 2.021696625357631 0  0.9866801805488914 2.554042320868289 0  0.4842405954457978 0.3674248026875673 0  0.1764810578689407 0.6996979327130011 0  0.5695354616787965 2.867647040045057 0  0.627187487409925 3.659501677082119 0  0.1696270647651137 0.3969694240763386 0  0.1588761645418826 3.579667620980887 0  0.3504882684591691 1.27320675399182 0  0.1613150679413317 4.323270191935268 0  0.8439697987258331 3.850137374173121 0  0.8582592809978382 3.556895103851285 0  1.2205291243602 2.169320339907971 0  0.8274853269315643 1.578104600362255 0  1.35480687481049 2.843927765640049 0  0.3677577894563876 1.843336837909973 0  0.3739468553634951 0.650971017289567 0  0.8175350952416559 2.032763453059245 0  1.255052217924463 2.621284633706947 0  0.6275139014702615 3.348445849128012 0  0.3500097682353719 0.1540209779916574 0  0.8470720720723232 0.3499999999992615 0  0.6516218900422024 0.1543745010121346 0  0.1570362925186822 4.034940931583384 0  0.6259846398323782 4.050387381032598 0  0.6243837498547334 0.4550390732635957 0  0.3764337664925781 4.252429701173535 0  0.3638240662285239 4.845889022715784 0  1.841058165929382 2.650192415774816 0  0.3538129642253492 3.310506091581767 0  0.3972635403128369 2.692091228217206 0  0.1493546974812203 3.864275696990799 0  0.8353411562925317 1.295894841996498 0  0.8510640038578493 4.24376876336904 0  0.3274183905250344 3.60709353923235 0  0.5690599951287177 3.803379429947107 0  0.3608465922823166 4.079737353610348 0  0.1464953658605303 2.61946161625165 0  0.8522365706696342 1.101349250004825 0  0.8462743532452005 0.8012074197151465 0  1.200278576701711 2.350961992006298 0  0.7326508832134601 2.394973662719556 0  0.6648495127067672 1.330201720826574 0  0.6421476239135478 4.851671120026346 0  1.851998954991891 2.359839578227697 0  1.041233083983184 2.39820467647697 0  0.8526824909154477 3.164884108363255 0  0.3803758752537028 2.126429281492964 0  0.6420376057736918 4.200165882518018 0  0.8501088759525246 4.401734271500779 0  1.398058673633662 2.147688933973308 0  0.8545605983512565 0.6343835319818829 0  1.072584152252426 2.853228937916825 0  0.8462674517070675 4.851971641280215 0  1.853403041422536 2.15097879283758 0  0.3930760976266651 3.836742518240063 0  0.1459746256495623 1.094533214558924 0  0.1449604950589468 3.41641374300675 0  0.360147239891959 1.507070948822289 0  0.1371791188132176 3.14627243933882 0  0.1373781948221472 1.948699496915061 0  0.8787091687571863 2.813528399808599 0  0.640346663916172 3.202454813230568 0  0.1447898426935465 4.687821488540191 0  1.681222862898315 2.858606263227755 0  0.6057151088165942 1.858748550906064 0  0.6959087423316198 1.05023956637574 0  0.6929156491439609 0.8504350871602226 0  0.3804448021156934 2.991689533004409 0  0.4069998378428982 3.136829475620725 0  0.6221516319980132 1.461574324140038 0  0.8595221684437686 4.671970471025065 0  1.655041305862432 2.135199824735708 0  0.8397218722524009 3.992237826182404 0  0.6648391028671355 4.465773104071535 0  1.462522756387578 2.335702451268775 0  1.107872485384334 2.648667416202137 0  0.6412014890654342 0.5971222632485688 0  0.8285592833177335 2.286311487886619 0  0.4769010664620999 2.574488224117733 0  0.3384926303571551 0.445684366822149 0  0.622529668465069 4.711696333659297 0  1.70347020696268 2.379656531207025 0  0.673413754958227 2.634174081826437 0  0.8424185362726981 3.41410212582428 0  0.1496314029302428 1.699903720635713 0  0.6712113209446312 2.961657242108266 0  0.1318402597280083 0.83835
[...]
<PointData  Vectors="f_15"> 
<DataArray  type="Float64"  Name="f_15"  NumberOfComponents="3" format="ascii">-5.6493629472611059e-08 2.1877682099150967e-07 0.0000000000000000e+00  -2.8724545432256646e-07 -1.7630589216696882e-07 0.0000000000000000e+00  8.5607450890563160e-08 3.8715776596514637e-07 0.0000000000000000e+00  -3.9620596210353431e-08 -4.1654246297431374e-08 0.0000000000000000e+00  1.9909656663070686e-08 -3.2905545872637887e-08 0.0000000000000000e+00  -1.8402959638210371e-07 2.9051395061866011e-07 0.0000000000000000e+00  -3.9994339909547752e-07 3.7501426302035439e-07 0.0000000000000000e+00  -8.3773719676025438e-09 4.8616592374916946e-08 0.0000000000000000e+00  5.7466866110025206e-05 1.0850782855551825e-02 0.0000000000000000e+00  1.8097420243587013e-05 1.1441959338725960e-02 0.0000000000000000e+00  1.5412235720595919e-05 1.1526082760024882e-02 0.0000000000000000e+00  6.0768240169370927e-06 1.1544473242836643e-02 0.0000000000000000e+00  2.2175522401192848e-06 1.1552450355236228e-02 0.0000000000000000e+00  -4.7693288892282399e-07 1.1550478152885948e-02 0.0000000000000000e+00  -8.7527967801521788e-06 1.1540456024495429e-02 0.0000000000000000e+00  -1.1661444802339583e-05 1.1467976423064399e-02 0.0000000000000000e+00  -5.9187367656806381e-05 1.0885960613053346e-02 0.0000000000000000e+00  -3.7217103632793582e-07 1.1140831024482617e-08 0.0000000000000000e+00  5.8176950639501685e-08 3.8136836865986759e-08 0.0000000000000000e+00  -1.6651302818530511e-07 -4.5458547083860526e-07 0.0000000000000000e+00  1.1903120761716604e-07 9.3182090425430188e-08 0.0000000000000000e+00  2.7608274916314012e-07 -4.1693847155332373e-08 0.0000000000000000e+00  2.1811112219176512e-07 -7.6360092212912418e-07 0.0000000000000000e+00  -5.6010523616028985e-08 -2.2357230004838291e-07 0.0000000000000000e+00  -2.7700986994197879e-07 2.4421562040407092e-07 0.0000000000000000e+00  2.9226330727542333e-07 -5.6161810808505597e-08 0.0000000000000000e+00  -8.9648674848018463e-08 -4.3249174924847248e-07 0.0000000000000000e+00  -2.4701481281017799e-07 5.6805586100254204e-09 0.0000000000000000e+00  -2.0433915783916973e-07 -3.6269685326190921e-08 0.0000000000000000e+00  -2.1178863489247879e-07 -1.0327790718409519e-07 0.0000000000000000e+00  -3.8758165345865833e-07 -2.8198329582158604e-07 0.0000000000000000e+00  -2.4947104002188663e-07 -2.8442860511165671e-07 0.0000000000000000e+00  1.9725476351944609e-07 6.4931128515879542e-08 0.0000000000000000e+00  2.7611054233666945e-07 -3.0225616860360190e-07 0.0000000000000000e+00  -1.9374945480506757e-06 -2.0675178635628549e-06 0.0000000000000000e+00  -9.3501074737401604e-07 4.8386065774184717e-07 0.0000000000000000e+00  -4.5138809181738397e-07 -1.6995405197880419e-06 0.0000000000000000e+00  -1.1168065778322498e-06 -1.3836386887477604e-06 0.0000000000000000e+00  -3.4507553127747974e-07 -2.8357821292346526e-07 0.0000000000000000e+00  -1.8963981683957839e-07 1.2004445807775715e-08 0.0000000000000000e+00  -6.7482658085996475e-08 -2.9110442462582744e-08 0.0000000000000000e+00  -5.2042965444915243e-08 -2.4470357613430596e-08 0.0000000000000000e+00  -7.0792235263487341e-08 -5.0265325589007211e-08 0.0000000000000000e+00  -2.9227993362095328e-08 -3.3875616281427281e-08 0.0000000000000000e+00  -3.5279612759181560e-08 -5.1197792803453750e-08 0.0000000000000000e+00  -3.9514657238003639e-08 -3.0740156211842099e-08 0.0000000000000000e+00  -2.3881743491844205e-08 -3.2488865569404049e-08 0.0000000000000000e+00  -3.2586920207227881e-08 -5.9794833555661174e-08 0.0000000000000000e+00  -3.3845426252830944e-08 -8.1536457261616475e-08 0.0000000000000000e+00  -1.7582583811484105e-08 -4.2782446987685689e-08 0.0000000000000000e+00  1.3555099140975437e-08 -5.2336552894884939e-08 0.0000000000000000e+00  4.3123116303854302e-08 -6.0251931289415902e-08 0.0000000000000000e+00  2.6458927022719692e-08 -4.3615027953554662e-08 0.0000000000000000e+00  3.7077227082394625e-08 -3.4481186333863280e-08 0.0000000000000000e+00  3.9403057518389240e-08 -5.4386764964518402e-08 0.0000000000000000e+00  2.8243828766547026e-08 -4.4271362620980476e-08 0.0000000000000000e+00  3.3863240046390255e-08 -3.4389749631255918e-08 0.0000000000000000e+00  7.8502637787588802e-08 -1.4026798810877914e-08 0.0000000000000000e+00  7.5247123616257135e-08 5.8441440020084609e-08 0.0000000000000000e+00  1.7728113157678805e-07 -1.7896458134978651e-08 0.0000000000000000e+00  3.2895103618894752e-07 -3.0895485406064968e-07 0.0000000000000000e+00  9.9870551786244394e-07 -1.5492105550818052e-06 0.0000000000000000e+00  2.4409120362175403e-07 -1.4298316557134639e-06 0.0000000000000000e+00  1.1031720920683332e-06 6.1291547885706575e-07 0.0000000000000000e+00  1.9889348758105018e-06 -1.4770594961215469e-06 0.0000000000000000e+00  3.1806555755156262e-07 -2.9710916721843004e-07 0.0000000000000000e+00  4.4031361913740092e-07 -5.5533425226705991e-08 0.0000000000000000e+00  -2.9894289805198874e-07 -5.1362283963220918e-07 0.0000000000000000e+00  -4.7326243501550111e-07 -4.5748755752642392e-07 0.0000000000000000e+00  -1.5454985745038351e-07 3.3287861704456776e-07 0.0000000000000000e+00  2.0884686756322028e-07 -2.1013074331851375e-07 0.0000000000000000e+00  2.7879848046499459e-07 -3.2639206276813137e-07 0.0000000000000000e+00  -2.0184727798764655e-07 -7.9920559340015707e-08 0.0000000000000000e+00  4.0869996846957261e-07 7.9485032916139782e-08 0.0000000000000000e+00  -2.8111644374165300e-08 -3.6405374470420372e-07 0.0000000000000000e+00  -2.6411029930621032e-07 -3.2862755544169721e-07 0.0000000000000000e+00  -5.5694867757076456e-07 8.7050169285440554e-08 0.0000000000000000e+00  3.3156913703840955e-07 1.1272491451923409e-07 0.0000000000000000e+00  2.0747432053931188e-07 -3.3403724668638987e-07 0.0000000000000000e+00  4.1427519496015966e-07 -2.2077786064071638e-07 0.0000000000000000e+00  -1.8160151476896478e-07 -1.0102668035549949e-07 0.0000000000000000e+00  3.8859561377937129e-08 -3.1834737339673932e-07 0.0000000000000000e+00  -1.9004625170796936e-05 1.1060588858518574e-02 0.0000000000000000e+00  -8.2472448007470520e-06 1.1514708981662236e-02 0.0000000000000000e+00  -4.9571572136317539e-06 1.1540398402983857e-02 0.0000000000000000e+00  -2.6677609388110180e-06 1.1552153196027972e-02 0.0000000000000000e+00  -4.7711323107447144e-06 1.1550868077709431e-02 0.0000000000000000e+00  -7.4087463344256311e-06 1.1541862710813889e-02 0.0000000000000000e+00  -1.5723752833062723e-05 1.1521937163420563e-02 0.0000000000000000e+00  -1.9749970632861500e-05 1.1439184692347081e-02 0.0000000000000000e+00  -4.6854408685586907e-05 1.0894972859149013e-02 0.0000000000000000e+00  -3.0028032605830795e-07 -2.3457960034556430e-07 0.0000000000000000e+00  -3.0974045706058608e-07 3.2085439183214646e-08 0.0000000000000000e+00  -5.0066711824646983e-07 -1.1942441023426571e-07 0.0000000000000000e+00  -1.8417983710700990e-07 -2.7891720903279272e-07 0.0000000000000000e+00  2.3087651144316489e-07 1.4369901565435984e-07 0.0000000000000000e+00  3.0887551549846383e-07 -3.4933482140813508e-07 0.0000000000000000e+00  1.0134782768842103e-07 -4.5618769375143099e-07 0.0000000000000000e+00  3.4947217135644705e-08 1.1153844794625909e-07 0.0000000000000000e+00  2.8715158194876027e-08 -1.4322670143769246e-07 0.0000000000000000e+00  2.0189672427484385e-07 -2.0767148200096502e-07 0.0000000000000000e+00  -5.0251346952400052e-07 -3.1883240929582748e-07 0.0000000000000000e+00  -1.6621525774588849e-07 -7.2659012483489271e-08 0.0000000000000000e+00  9.3180627746845324e-08 3.4059033543854729e-07 0.0000000000000000e+00  6.4062303950652495e-07 -2.0588960896645909e-07 0.0000000000000000e+00  1.1920437563221423e-07 -3.1995558145568877e-07 0.0000000000000000e+00  -5.3278651200143868e-07 -2.4520071390812932e-07 0.0000000000000000e+00  -2.8923687765839976e-08 2.2909596427278419e-07 0.0000000000000000e+00  -1.3312601081512043e-07 -2.4321195296565420e-07 0.0000000000000000e+00  -5.3986342727107655e-08 -2.0783857757948101e-07 0.0000000000000000e+00  -1.0569532656712470e-07 3.8045322290644027e-07 0.0000000000000000e+00  4.5147555130287465e-07 -9.7405999454375752e-08 0.0000000000000000e+00  3.3905834143001410e-07 -4.3293572648659355e-07 0.0000000000000000e+00  -2.1679500154329260e-08 -1.1551193235317820e-07 0.0000000000000000e+00  -2.4403380976498355e-08 7.2080478708639603e-08 0.0000000000000000e+00  1.4884533204941267e-07 1.9098105123013793e-07 0.0000000000000000e+00  -6.1251110793593267e-08 -9.1508486807229192e-08 0.0000000000000000e+00  -6.3111238630885142e-07 -3.3431389059661783e-07 0.0000000000000000e+00  -4.7094980361727763e-07 2.1493009057079289e-07 0.0000000000000000e+00  1.5473430881236139e-07 2.2739449657585713e-07 0.0000000000000000e+00  3.3524557945745861e-08 -4.3328404410022764e-07 0.0000000000000000e+00  -8.0990771199121382e-08 -9.3389275070205249e-08 0.0000000000000000e+00  -3.2987093809057116e-07 2.4442697522969751e-07 0.0000000000000000e+00  -1.7277543337505244e-07 -3.5252191995816728e-07 0.0000000000000000e+00  4.4420094854258397e-08 3.1550999823969809e-07 0.0000000000000000e+00  2.9988739941310973e-07 1.1718275688922539e-08 0.0000000000000000e+00  2.2427211607837732e-07 -8.8629215014201131e-07 0.0000000000000000e+00  -2.6904264174616406e-07 -3.8438653350527404e-07 0.0000000000000000e+00  -2.0911194566156599e-07 1.8252465523120275e-07 0.0000000000000000e+00  7.5252356003607896e-08 1.5433858835976322e-07 0.0000000000000000e+00  5.3505958995183847e-07 -1.5077101644270579e-07 0.0000000000000000e+00  -1.7433641872294473e-07 -5.7829970623009801e-07 0.0000000000000000e+00  -6.8675278020898490e-07 -3.9914574701791242e-07 0.0000000000000000e+00  -9.0723864590869078e-07 1.3119739225107642e-08 0.0000000000000000e+00  7.6249120408046315e-09 1.7393220005545711e-07 0.0000000000000000e+00  5.6822059429824006e-07 1.3381996515983776e-07 0.0000000000000000e+00  7.1119080078998226e-07 -5.1486609781156046e-07 0.0000000000000000e+00  2.7840927193426555e-07 -3.1139043957821570e-07 0.0000000000000000e+00  1.9148329441215202e-07 -2.3795062353266092e-07 0.0000000000000000e+00  1.8225774536781875e-07 2.2122270881966668e-07 0.0000000000000000e+00  3.3468166101956183e-05 9.2229709095230580e-03 0.0000000000000000e+00  2.0171970596989659e-05 1.1570064875435495e-02 0.0000000000000000e+00  -6.1192824037361107e-04 1.1321076199259853e-02 0.0000000000000000e+00  -3.6229017803082428e-05 1.1571102836220383e-02 0.0000000000000000e+00  -1.0277318135514390e-04 4.3351084495696834e-03 0.0000000000000000e+00  8.8543733982410927e-04 1.0851879253204777e-02 0.0000000000000000e+00  1.7966930845219288e-04 1.1531724058267934e-02 0.0000000000000000e+00  -1.7253163718451085e-04 1.1538981354431372e-02 0.0000000000000000e+00  -1.3143475626575994e-05 1.1573485893164611e-02 0.0000000000000000e+00  2.8628442433668226e-04 1.2783512213890554e-03 0.0000000000000000e+00  -6.6028477560169704e-04 1.0313447611700274e-02 0.0000000000000000e+00  5.1654882013308761e-05 1.1563081877192702e-02 0.0000000000000000e+00  3.6138244182966264e-04 1.0158341160733411e-02 0.0000000000000000e+00  3.4478292672557808e-04 1.1243589167882496e-02 0.0000000000000000e+00  5.9275091167490545e-04 1.1715737964840624e-02 0.0000000000000000e+00  1.7997918398254937e-03 9.7569332717680878e-03 0.0000000000000000e+00  -1.8416023048699747e-03 9.6020124555531421e-03 0.0000000000000000e+00  1.9853384136122320e-05 1.1519852728834760e-02 0.0000000000000000e+00  -1.2879878113244451e-05 1.1545747808400796e-02 0.0000000000000000e+00  -1.0671080824777518e-03 1.7924812589363945e-03 0.0000000000000000e+00  -6.6798425549680014e-05 1.1603317040046305e-02 0.0000000000000000e+00  -3.1197076432169590e-04 1.1691300668539469e-02 0.0000000000000000e+00  2.2961859274530773e-05 1.1539374973185898e-02 0.0000000000000000e+00  -3.0861998672153821e-06 1.1551900563809265e-02 0.0000000000000000e+00  7.0231209463567109e-05 1.1489785247823920e-02 0.0000000000000000e+00  -7.5272414352558538e-05 1.0066646317492333e-02 0.0000000000000000e+00  -4.2259995551182354e-04 8.0042608355939847e-04 0.0000000000000000e+00  -2.9066906841288100e-05 1.1539580581739661e-02 0.0000000000000000e+00  -5.6556745714857003e-05 1.1496916031657775e-02 0.0000000000000000e+00  -2.2245072981360493e-04 1.1303221110691663e-02 0.0000000000000000e+00  -1.8116667753935358e-05 1.1561375909636448e-02 0.0000000000000000e+00  1.5578822926218883e-03 2.2868320751013122e-03 0.0000000000000000e+00  -1.5140422384711768e-03 1.1504813707514513e-02 0.0000000000000000e+00  7.7582629557438633e-04 7.3332440528264264e-03 0.0000000000000000e+00  -3.6835219952608469e-04 1.0885465335887140e-02 0.0000000000000000e+00  3.2954417417290474e-05 1.1550292068378071e-02 0.0000000000000000e+00  7.5432640735469556e-05 1.1605474298225980e-02 0.0000000000000000e+00  -2.3762085553547217e-03 6.3648071839180129e-03 0.0000000000000000e+00  3.7186692710470826e-04 1.0638314908067268e-02 0.0000000000000000e+00  1.2974487582071597e-04 1.1277737099707927e-02 0.0000000000000000e+00  1.5897319844428704e-03 1.1797839096960928e-02 0.0000000000000000e+00  4.0909537423625754e-06 1.1538411694760138e-02 0.0000000000000000e+00  4.0427204679754691e-04 6.2123135239864941e-04 0.0000000000000000e+00  1.2867610887939742e-05 1.1453398360883308e-02 0.0000000000000000e+00  3.4805850415256532e-03 5.0616307922122170e-03 0.0000000000000000e+00  1.8108799859127932e-04 1.1640522755028892e-02 0.0000000000000000e+00  -1.4319339235130338e-05 1.1458708150402248e-02 0.0000000000000000e+00  -8.8391387812469910e-05 1.1333909651495975e-02 0.0000000000000000e+00  -2.7493736518540379e-05 1.1519942257936580e-02 0.0000000000000000e+00  -1.3765478594274531e-04 1.1605197380054928e-02 0.0000000000000000e+00  -6.9247606362379409e-04 1.1880087204154888e-02 0.0000000000000000e+00  -1.0923797959228950e-05 1.1558972910635778e-02 0.0000000000000000e+00  -1.8079038397136386e-05 8.4365941941238641e-04 0.0000000000000000e+00  -2.9198618135130813e-03 3.2010434488292635e-03 0.0000000000000000e+00  6.1751519136801185e-06 1.1437019314958568e-02 0.0000000000000000e+00  9.6590748266868324e-04 9.2433519762857722e-04 0.0000000000000000e+00  1.7575886570575716e-05 1.1460018464479478e-02 0.0000000000000000e+00  -9.2714854766559509e-04 1.0839368856830367e-02 0.0000000000000000e+00  -1.8983419144925570e-04 9.9927082805129387e-03 0.0000000000000000e+00  2.5449266557093966e-04 1.0855096703959746e-02 0.0000000000000000e+00  7.1742582152919433e-06 1.1558569435013996e-02 0.0000000000000000e+00  -1.1958763743492317e-03 7.9119847635032298e-03 0.0000000000000000e+00  -7.8952206816965121e-04 9.6280503913937134e-03 0.0000000000000000e+00  9.0659983270106125e-05 1.1552417217825840e-02 0.0000000000000000e+00  3.1654551656772332e-05 1.1560907713269317e-02 0.0000000000000000e+00  1.0046064170877618e-03 1.0269419353942408e-02 0.0000000000000000e+00  5.5612524218646765e-05 1.1502974457291391e-02 0.0000000000000000e+00  -2.0985039949712737e-05 1.1576590335897970e-02 0.0000000000000000e+00  1.1352695301531823e-04 2.5848018020891185e-03 0.0000000000000000e+00  -6.9148576314011185e-05 1.1568096443248990e-02 0.0000000000000000e+00  -3.6587117080939737e-04 1.1478542120219499e-02 0.0000000000000000e+00  -2.2731883780551616e-04 1.0951449531440657e-02 0.0000000000000000e+00  8.6587455610357130e-05 1.0132095896805715e-02 0.0000000000000000e+00  5.9097535534814152e-04 1.1345819844523397e-02 0.0000000000000000e+00  3.8366303272424190e-04 1.1496155594990145e-02 0.0000000000000000e+00  1.7156395318049322e-05 1.1208266011846308e-02 0.0000000000000000e+00  -3.3285518792851496e-05 1.1039360952895240e-02 0.0000000000000000e+00  -1.1126644165868763e-03 7.9473684210471722e-04 0.0000000000000000e+00  1.3583280991973594e-04 9.8324032559702953e-03 0.0000000000000000e+00  3.7085755275793829e-03 8.4564933900767511e-03 0.0000000000000000e+00  4.3654086541297267e-05 1.0874473039002268e-02 0.0000000000000000e+00  1.6913286863946323e-04 9.9956456062852018e-03 0.0000000000000000e+00  5.0498584758695713e-05 1.1536631761820021e-02 0.0000000000000000e+00  7.1030259558966288e-04 9.5390681077510975e-03 0.0000000000000000e+00  4.4316708827164018e-05 1.1108546229204465e-02 0.0000000000000000e+00  -3.9286874951538877e-05 1.1002222069648441e-02 0.0000000000000000e+00  -1.8727977611041261e-04 1.0095445440131598e-02 0.0000000000000000e+00  1.5736092356523527e-04 1.0811142666538107e-02 0.0000000000000000e+00  -3.0517075904404160e-04 3.8317412129827867e-04 0.0000000000000000e+00  -6.1483624770685037e-05 1.1014503493099377e-02 0.0000000000000000e+00  7.7937501272510679e-04 1.1667573560276994e-02 0.0000000000000000e+00  -2.0468681326520360e-05 1.1572142242333161e-02 0.0000000000000000e+00  -3.9999203621178309e-04 1.3285331291889833e-03 0.0000000000000000e+00  -3.3887482199892508e-03 1.0555699163278278e-02 0.0000000000000000e+00  1.5767388629875144e-03 1.0777862292060063e-02 0.0000000000000000e+00  -4.7925095406272218e-04 6.1986646695938626e-03 0.0000000000000000e+00  1.4793099530813952e-05 1.1567775101884666e-02 0.0000000000000000e+00  -2.7919787405891315e-05 1.0994723401808402e-02 0.0000000000000000e+00  -1.1119330751881127e-03 1.0296744380591810e-02 0.0000000000000000e+00  -1.8974060392184451e-04 1.1639207462359391e-02 0.0000000000000000e+00  3.5947518444683302e-05 1.0980034593910309e-02 0.0000000000000000e+00  -6.8582357621008058e-05 1.0828028128257866e-02 0.0000000000000000e+00  1.3105079945511893e-04 1.1453742590938305e-02 0.0000000000000000e+00  2.6595727284509281e-05 1.0776836773716963e-02 0.0000000000000000e+00  -3.0722392860913067e-05 1.0801816615168328e-02 0.0000000000000000e+00  -1.3558099606751712e-04 1.0848175757093468e-02 0.0000000000000000e+00  3.1991925114368183e-03 2.2914380614964783e-03 0.0000000000000000e+00  2.9278517676039131e-04 1.1373177736194551e-02 0.0000000000000000e+00  -2.0721143982663434e-03 1.2917491116964325e-03 0.0000000000000000e+00  4.9255124953299706e-04 1.1032329569449995e-02 0.0000000000000000e+00  1.5642485487725979e-05 1.1555433993019292e-02 0.0000000000000000e+00  3.1172710404368462e-03 1.0665637554468534e-02 0.0000000000000000e+00  -1.0344143053663552e-03 3.1285971882293677e-03 0.0000000000000000e+00  -5.6873806379731330e-04 1.1595230883489360e-02 0.0000000000000000e+00  1.7525026665785447e-05 1.1534395165528741e-02 0.0000000000000000e+00  -2.3877762709307687e-05 1.0787934711802468e-02 0.0000000000000000e+00  -7.0256808136617353e-06 1.1545434620407073e-02 0.0000000000000000e+00  -7.2986210838891307e-06 1.0761809273062885e-02 0.0000000000000000e+00  -4.4859487234971436e-05 1.1587276913717807e-02 0.0000000000000000e+00  1.6533043202037792e-05 1.1576291288068303e-02 0.0000000000000000e+00  -1.9336252080757035e-05 1.1556462236275183e-02 0.0000000000000000e+00  -2.2207627265707325e-05 1.1532785798204350e-02 0.0000000000000000e+00  -1.2926594323242361e-04 6.1429005967688808e-04 0.0000000000000000e+00  -3.7845905821331171e-04 1.1232570827151345e-02 0.0000000000000000e+00  -3.5347592940926560e-04 1.0085451237252479e-02 0.0000000000000000e+00  -5.6718338140615146e-05 1.0626761467057816e-02 0.0000000000000000e+00  5.0993989864809455e-05 1.1148887720605113e-02 0.0000000000000000e+00  -1.6755782125143325e-05 1.0785824690241586e-02 0.0000000000000000e+00  -1.6653690439028844e-04 1.1415184434955985e-02 0.0000000000000000e+00  -1.1949112372162822e-04 1.1598595229664036e-02 0.0000000000000000e+00  -3.8975747278937242e-05 1.1543948011737030e-02 0.0000000000000000e+00  -5.3693549595947571e-05 9.6709564937891308e-03 0.0000000000000000e+00  1.4835049549189587e-05 1.1099995734121498e-02 0.0000000000000000e+00  5.1013832578022233e-05 1.0955294043836297e-02 0.0000000000000000e+00  1.5259672165958177e-03 3.7549862512191584e-03 0.0000000000000000e+00  7.3764211432380915e-04 8.6474752657104484e-03 0.0000000000000000e+00  1.5558916685320110e-04 1.1628637413604601e-02 0.0000000000000000e+00  -1.5894272977927347e-06 1.1540602717062570e-02 0.0000000000000000e+00  1.3058911694922506e-04 6.1601870619001876e-04 0.0000000000000000e+00  1.1536838128049487e-03 5.5202455566658679e-03 0.0000000000000000e+00  -1.1601144129360671e-03 1.1364050557488764e-02 0.0000000000